<?xml version="1.0" encoding="UTF-8"?>
<VTKFile type="UnstructuredGrid" version="0.1" byte_order="LittleEndian">
    <UnstructuredGrid>
        <Piece NumberOfPoints="367" NumberOfCells="1487">
            <PointData>
                <DataArray type="UInt64" Name="original_index" format="ascii" NumberOfComponents="1">
914
949
591
948
984
958
666
641
968
969
668
986
859
578
858
902
970
985
667
983
957
640
670
658
988
627
674
649
939
650
940
904
915
592
950
916
669
643
615
672
967
937
966
903
617
938
673
645
963
652
941
676
651
971
675
549
628
977
629
646
935
613
593
934
648
626
959
936
900
925
614
901
647
987
644
671
610
961
960
642
607
616
665
579
928
972
927
618
905
619
962
609
857
548
608
611
594
2206
2325
2373
2415
2433
2310
2409
2230
2318
2197
2189
2101
2274
2349
2179
2346
2405
2117
2341
2350
2407
2299
2303
2400
2149
2148
2333
2229
2287
2012
2358
2442
2156
2174
2157
2328
2292
2375
2118
2080
2137
2280
2199
2180
2091
2127
2176
2151
2220
2059
2060
2153
2136
2379
2326
2226
2177
2413
2261
2465
2175
2414
2102
2126
2315
2079
2116
2211
2103
2138
2125
2090
2423
2376
2404
2013
2234
2124
2155
2154
2128
2217
2104
2387
2150
2381
2152
2120
2173
2322
2172
2061
2058
2165
2121
2158
2159
2119
2215
2086
2122
2092
2123
2088
2011
2089
1248
1277
1276
1217
1279
1250
1251
1249
1172
1214
1213
1244
1243
1208
1280
1293
1292
1274
1278
1216
1295
1267
1268
1275
1247
1297
1252
1281
1242
1174
1215
1173
1272
1269
1294
1236
1235
1171
1237
1270
1212
1273
1246
1296
1291
1271
1238
1207
2753
2681
2779
2852
1547
1591
2678
2719
2763
2531
2867
2625
2848
2658
2726
2772
2785
2612
2530
2760
1690
1666
1691
2701
2592
1663
1630
2568
2812
2488
2820
1676
1689
2557
2577
2555
2657
2595
2496
2523
2611
2551
2589
2624
2684
2504
2770
2797
2810
2824
2849
2586
2637
2777
2858
2728
2809
1664
2545
1686
2724
2556
1592
2767
2480
2654
1596
1634
1633
2663
2515
2668
2635
2651
2614
2844
2573
1667
2550
1674
1687
1593
2540
2534
2631
1632
2864
2756
1665
1629
1688
2516
2744
2817
2677
1548
1608
2826
2500
1643
1644
1675
1595
1645
2491
2795
1631
1495
1494
1546
1662
1661
2780
1651
1673
1594</DataArray>
            </PointData>
            <Points>
                <DataArray type="Float64" Name="Points" format="ascii" NumberOfComponents="3">
8011.12 1840.86 916.299
7423.48 1479.19 1034.12
8011.07 1840.82 1116.16
7423.88 2202.2 1037.05
3564.51 1605.58 1679.54
3208.14 2207.14 1712.88
3564.69 1605.89 1878.77
3920.94 2207.64 1847.52
4982.32 628.06 1493.26
4275.56 628.542 1596.55
4980.12 1606.35 1679.62
4980.13 1606.29 1482.83
4632.77 -1176.74 1577.04
5340.95 -1176.76 1668.98
5340.62 -1176.74 1469.3
4986.37 -575.214 1521.09
3565.64 629.035 1677.9
4273.8 1605.84 1589.92
4273.98 1606.05 1788.82
2850.98 1605.51 1734.74
2492.97 2207.01 1740.48
3208.69 2207.46 1915.82
6388.2 1606.47 1431.98
6836.04 1117.3 1352.44
6387.87 1606.56 1232.78
7423.26 1479.14 1233.1
4276.14 628.599 1797.09
4631.35 26.4763 1761.44
3921.61 26.9649 1649.7
3922.14 26.9839 1849.5
3209.13 27.5532 1711.31
3565.63 -574.459 1689.23
8012.58 1117.95 922.452
8012.49 1117.95 1122
7426.26 756.201 1046.42
8015.69 394.883 936.755
5684.7 1606.55 1560.39
5334.41 2208.25 1632.79
5693 -575.106 1605.12
5687.69 627.93 1576.29
5687.38 627.923 1376.24
5337.74 26.3578 1452.85
6391.23 628.083 1249.31
4277.4 -575.032 1617.85
4277.85 -575.07 1817.84
4630.94 26.4855 1561.38
4982.72 628.072 1693.45
6740.9 2208.1 1371.63
6740.43 2208.2 1171.75
2494.39 27.8649 1942.86
2493.61 27.8775 1742.01
2852.66 629.173 1934.23
3209.81 27.5275 1912.8
2851.87 629.168 1732
3566.21 629.036 1878.55
8601.52 756.586 1010.33
7426.26 756.2 1246.37
6836.1 1117.34 1152.66
7429.8 33.1729 1262.82
6746.22 26.8188 1398.15
6745.89 26.7499 1198.19
7099.25 -574.583 1337.43
8015.7 394.884 1136.8
7447.97 27.0184 1059.27
5338.07 26.3443 1652.85
7423.88 2202.19 1237.06
3920.56 2207.42 1647.59
6042.62 26.5066 1330.42
6396.59 -574.911 1275.59
3565.08 2808.89 1690.81
6396.99 -574.86 1475.75
5692.64 -575.107 1405.06
6042.94 26.5239 1530.38
5684.44 1606.54 1361.46
6038.25 2208.22 1505.66
6391.53 628.126 1449.38
5689.42 2809.75 1586.19
5333.91 2208.24 1432.82
4628.46 2207.94 1548.76
4629.01 2207.99 1748.53
3565.49 2809.16 1890.28
4986.76 -575.242 1721.24
2851.44 1605.85 1936.66
4633.26 -1176.79 1777.62
5688.84 2809.78 1386.25
2135.38 629.224 1749.4
4983.75 2809.69 1507.94
3566.28 -574.469 1889.7
2851.23 -573.754 1729.7
2851.99 -573.801 1931.95
6037.76 2208.28 1305.93
4984.31 2809.75 1707.87
6045.49 -1176.6 1344.2
8599.17 1479.58 999.368
4276.73 2809.48 1812.65
6392.59 2809.69 1453.93
8017.76 -328.549 1146.78
3567.87 1972.55 2568.73
4297 2322.84 2529.88
9124.42 780.742 1571.23
8139.72 1491.47 1743.87
3182.13 -361.249 2667.74
7507.46 1837.18 1859.43
8320.07 2195.03 1672.48
5739.56 -205.308 2424.46
8220.51 42.3116 1762.43
3888.23 2994.32 2578.23
7148.68 -234.461 2290.96
7952.23 -328.739 3247.13
8149.81 -758.069 2188.42
8296.87 -75.8019 2523.95
7887.02 2322.57 2244
7542.73 1770.4 2594.82
8233.67 1629.45 2634.67
4241.28 -560.364 3247.13
4353.45 -900.177 2538.31
4241.28 243.197 2553.93
4776.49 -335.748 2372.09
5073.55 316.885 2476.99
6053.25 1849.9 2140.05
6006.54 450.106 2631.08
3888.23 44.0812 3247.13
3182.13 44.0812 3247.13
3260.33 441.708 2559.07
6152.48 1127.95 2139.61
8753.17 412.359 2132.56
9151.04 394.339 3247.13
9462.64 956.37 2386.47
8400.37 941.52 2479.77
4947.39 1586.31 3247.13
4241.28 648.527 3247.13
4241.28 1586.31 3247.13
4599.17 1117.42 2521.36
8085.13 771.478 1849.89
7628.73 404.474 2489.84
4947.39 -560.364 3247.13
4594.34 -1164.81 3247.13
7352.82 755.879 3247.13
7366.76 1130.49 1950.88
5300.44 2994.32 2487.34
6864.64 1610.67 2347.45
4241.28 2795.2 3247.13
3888.23 2190.75 3247.13
5653.49 648.527 3247.13
5300.44 44.0812 3247.13
5022.4 1947.82 2469.09
8551.63 32.8001 3247.13
8551.63 755.879 3247.13
6712.65 44.0812 3247.13
7352.82 32.8001 3247.13
6652.23 802.57 2582.2
6968.35 464.481 2001.45
3248.09 2634.31 2530.84
6359.59 648.527 3247.13
7644.74 -417.151 1791.7
6501.09 -156.564 2030.33
3888.23 869.505 2652.82
4947.39 648.527 3247.13
5444.4 1050.1 2556.82
7952.23 394.339 3247.13
4594.34 2190.75 3247.13
4586.85 3046.34 2416.51
3888.23 -1164.81 3247.13
3535.18 -560.364 3247.13
3561.74 -950.18 2572.64
7952.23 1117.42 3247.13
7352.82 1478.96 3247.13
5300.44 2190.75 3247.13
4947.39 2795.2 3247.13
8888.18 -570.583 2582.05
9341.71 32.8001 2569.58
3265.94 1236.76 2585.21
9151.04 1117.42 3247.13
5252.43 -889.799 2454.18
6006.54 2190.75 3247.13
5653.49 1586.31 3247.13
6359.59 1586.31 3247.13
3182.13 2190.75 3247.13
2846.71 1981.34 2639.81
7952.23 1840.5 3247.13
8912.92 1443.84 2579.74
4594.34 44.0812 3247.13
2506.63 482.733 2586.98
6006.54 44.0812 3247.13
6359.59 -560.364 3247.13
3535.18 648.527 3247.13
2476.03 1319.09 2630.67
2829.08 648.527 3247.13
8551.63 1478.96 3247.13
8551.63 -690.278 3247.13
6753.41 1117.42 3247.13
7065.7 -560.364 3247.13
3535.18 1586.31 3247.13
2829.08 1586.31 3247.13
5653.49 -560.364 3247.13
6110.94 2535.11 2381.38
7771.8 2795.2 3247.13
7418.75 2190.75 3247.13
3535.18 2795.2 3247.13
6712.65 2190.75 3247.13
6359.59 2795.2 3247.13
9151.04 -328.739 3247.13
5653.49 2795.2 3247.13
5337.77 26.365 652.842
4982.33 628.056 693.254
5687.41 627.932 576.235
2851.23 -573.776 929.7
3565.64 629.016 877.903
3921.61 26.9443 849.701
3209.12 27.5328 911.315
4630.95 26.4801 761.376
5340.65 -1176.73 669.29
4986.41 -575.208 721.084
5692.67 -575.101 605.054
7426.26 756.201 246.424
7423.48 1479.19 234.118
8012.58 1117.95 122.452
2851.87 629.149 931.999
3564.51 1605.6 879.54
2850.98 1605.53 934.737
6836.1 1117.34 352.657
4275.55 628.523 796.553
3565.62 -574.481 889.235
4980.12 1606.31 682.835
2492.97 2207.03 940.482
3208.13 2207.16 912.884
6391.26 628.092 449.307
6042.65 26.5139 530.414
6387.88 1606.56 432.775
2493.61 27.8569 942.013
2135.39 629.205 949.397
7423.88 2202.2 237.049
3921.83 -1176.43 861.372
4277.42 -575.039 817.852
4632.8 -1176.73 777.036
6037.77 2208.28 505.929
3920.55 2207.44 847.59
4273.79 1605.86 789.922
3565.08 2808.91 890.815
2850.78 2808.65 935.343
6045.52 -1176.59 544.198
4276.11 2809.41 812.85
4628.45 2207.96 748.764
6396.61 -574.905 475.585
6740.46 2208.19 371.744
6745.92 26.7572 398.189
5684.43 1606.56 561.466
2135.04 1605.47 943.753
5333.9 2208.26 632.818
4983.74 2809.71 707.937
8011.12 1840.86 116.299
3923.99 1893.03 -99.9812
3139.43 1214.88 23.5749
3451.97 754.638 -534.458
3843.09 753.385 160.064
2829.08 -1769.26 -1837.56
2476.03 -1164.81 -1837.56
2122.97 -988.941 -1221.85
3025.38 -1137.18 -871.132
3116.24 410.926 -1159
3474.77 57.714 -167.461
2838.6 74.0415 -546.479
5915 412.377 -176.983
6500.09 850.771 -232.921
5300.44 449.411 -984.652
5166.31 427.041 -245.128
5585.9 1107.85 -33.6158
4999.63 1456.62 -812.026
3467.06 2837.42 -719.337
4441.07 2640.07 -513.883
3535.18 2254.67 -1214.37
5653.49 648.527 -1837.56
6006.54 44.0812 -1837.56
6359.59 648.527 -1837.56
6359.59 192.871 -1234.64
6623.82 -585.814 -223.017
3888.23 44.0812 -1837.56
3535.18 -560.364 -1837.56
3888.23 -540.167 -885.075
3285.92 -300.624 -1208.79
4473.68 378.939 -533.808
4594.34 504.764 -1229.76
4947.39 1586.31 -1837.56
4947.39 648.527 -1837.56
4167.53 -1130.16 -106.496
3274.77 -846.288 30.2603
3888.23 449.411 -1115.34
3888.23 1358.43 -1026.63
7497.84 1107.66 -365.739
5916.99 -774.027 -154.015
4902.98 -470.84 -260.403
4212.03 -197.57 90.7685
7265.97 1844.97 -797.596
7538.07 2475.38 -465.742
8117.24 1682.36 -731.681
7829.47 2267.47 -1157.18
2474.1 433.533 136.932
5593.34 -180.973 33.6668
2485.1 1801.03 312.87
3292.46 1885.82 264.029
2021.6 1113.48 285.435
2544.05 1402.33 -457.841
7556.32 1138.69 -1112.79
6812.11 556.966 -818.746
6889.08 1505.16 -267.808
6437.42 982.991 -1228.05
4921.91 -137.638 -1207.34
4938.2 1981.56 4.02825
4594.34 44.0812 -1837.56
2476.03 728.65 -861.449
2829.08 648.527 -1837.56
2476.03 1352.93 -1241.62
3127.49 1817.34 -814.836
3182.13 -1164.81 -1837.56
3574.63 -1386.97 -1242.41
6183.41 -189.699 -657.665
6963.77 76.0142 -294.272
6006.54 -1164.81 -1837.56
6359.59 -560.364 -1837.56
5653.49 -560.364 -1837.56
6134.85 -1012.41 -976.602
5300.44 -759.48 -1120.57
5653.49 -155.034 -1251.93
4526.29 1109.26 40.36
4546.25 417.393 180.101
2502.5 -1567.39 123.905
2688.99 -609.931 -304.781
4544.72 2626.3 185.191
6712.65 44.0812 -1837.56
4241.28 2389.87 -1199.06
3535.18 1586.31 -1837.56
3535.18 648.527 -1837.56
3888.23 -1164.81 -1837.56
6006.54 1117.42 -693.548
2094.86 -190.158 296.31
2885.71 -207.556 252.582
4947.39 -560.364 -1837.56
4608.07 -767.505 -1254.94
6803.49 -364.377 -1026.36
5300.44 44.0812 -1837.56
2829.08 -560.364 -1837.56
4241.28 648.527 -1837.56
2041.1 -1411.75 -630.912
2930.56 -2115.31 -1187.1
3300.19 -2045.16 -260.467
2566.91 -308.163 -1119.82
3535.18 -1769.26 -1837.56
3535.18 2795.2 -1837.56
2829.08 2303.56 -1234.24
2816.4 2414.24 42.6743
3182.13 2190.75 -1837.56
3888.23 2190.75 -1837.56
4241.28 1586.31 -1837.56
5300.44 -1164.81 -1837.56
4594.34 2190.75 -1837.56
2145.49 -168.187 -448.783
3783.97 2580.78 197.263
4241.28 -560.364 -1837.56
3182.13 -2373.7 -1837.56
2476.03 -2373.7 -1837.56
2122.97 -1769.26 -1837.56
3182.13 44.0812 -1837.56
2476.03 44.0812 -1837.56
2482.5 -769.849 360.838
7352.82 755.879 -1837.56
2829.08 1586.31 -1837.56
4594.34 -1164.81 -1837.56</DataArray>
            </Points>
            <CellData>
                <DataArray type="UInt64" Name="partition" format="ascii">
4
4
4
4
4
4
4
4
4
4
4
4
4
4
4
4
4
4
4
4
4
4
4
4
4
4
4
4
4
4
4
4
4
4
4
4
4
4
4
4
4
4
4
4
4
4
4
4
4
4
4
4
4
4
4
4
4
4
4
4
4
4
4
4
4
4
4
4
4
4
4
4
4
4
4
4
4
4
4
4
4
4
4
4
4
4
4
4
4
4
4
4
4
4
4
4
4
4
4
4
4
4
4
4
4
4
4
4
4
4
4
4
4
4
4
4
4
4
4
4
4
4
4
4
4
4
4
4
4
4
4
4
4
4
4
4
4
4
4
4
4
4
4
4
4
4
4
4
4
4
4
4
4
4
4
4
4
4
4
4
4
4
4
4
4
4
4
4
4
4
4
4
4
4
4
4
4
4
4
4
4
4
4
4
4
4
4
4
4
4
4
4
4
4
4
4
4
4
4
4
4
4
4
4
4
4
4
4
4
4
4
4
4
4
4
4
4
4
4
4
4
4
4
4
4
4
4
4
4
4
4
4
4
4
4
4
4
4
4
4
4
4
4
4
4
4
4
4
4
4
4
4
4
4
4
4
4
4
4
4
4
4
4
4
4
4
4
4
4
4
4
4
4
4
4
4
4
4
4
4
4
4
4
4
4
4
4
4
4
4
4
4
4
4
4
4
4
4
4
4
4
4
4
4
4
4
4
4
4
4
4
4
4
4
4
4
4
4
4
4
4
4
4
4
4
4
4
4
4
4
4
4
4
4
4
4
4
4
4
4
4
4
4
4
4
4
4
4
4
4
4
4
4
4
4
4
4
4
4
4
4
4
4
4
4
4
4
4
4
4
4
4
4
4
4
4
4
4
4
4
4
4
4
4
4
4
4
4
4
4
4
4
4
4
4
4
4
4
4
4
4
4
4
4
4
4
4
4
4
4
4
4
4
4
4
4
4
4
4
4
4
4
4
4
4
4
4
4
4
4
4
4
4
4
4
4
4
4
4
4
4
4
4
4
4
4
4
4
4
4
4
4
4
4
4
4
4
4
4
4
4
4
4
4
4
4
4
4
4
4
4
4
4
4
4
4
4
4
4
4
4
4
4
4
4
4
4
4
4
4
4
4
4
4
4
4
4
4
4
4
4
4
4
4
4
4
4
4
4
4
4
4
4
4
4
4
4
4
4
4
4
4
4
4
4
4
4
4
4
4
4
4
4
4
4
4
4
4
4
4
4
4
4
4
4
4
4
4
4
4
4
4
4
4
4
4
4
4
4
4
4
4
4
4
4
4
4
4
4
4
4
4
4
4
4
4
4
4
4
4
4
4
4
4
4
4
4
4
4
4
4
4
4
4
4
4
4
4
4
4
4
4
4
4
4
4
4
4
4
4
4
4
4
4
4
4
4
4
4
4
4
4
4
4
4
4
4
4
4
4
4
4
4
4
4
4
4
4
4
4
4
4
4
4
4
4
4
4
4
4
4
4
4
4
4
4
4
4
4
4
4
4
4
4
4
4
4
4
4
4
4
4
4
4
4
4
4
4
4
4
4
4
4
4
4
4
4
4
4
4
4
4
4
4
4
4
4
4
4
4
4
4
4
4
4
4
4
4
4
4
4
4
4
4
4
4
4
4
4
4
4
4
4
4
4
4
4
4
4
4
4
4
4
4
4
4
4
4
4
4
4
4
4
4
4
4
4
4
4
4
4
4
4
4
4
4
4
4
4
4
4
4
4
4
4
4
4
4
4
4
4
4
4
4
4
4
4
4
4
4
4
4
4
4
4
4
4
4
4
4
4
4
4
4
4
4
4
4
4
4
4
4
4
4
4
4
4
4
4
4
4
4
4
4
4
4
4
4
4
4
4
4
4
4
4
4
4
4
4
4
4
4
4
4
4
4
4
4
4
4
4
4
4
4
4
4
4
4
4
4
4
4
4
4
4
4
4
4
4
4
4
4
4
4
4
4
4
4
4
4
4
4
4
4
4
4
4
4
4
4
4
4
4
4
4
4
4
4
4
4
4
4
4
4
4
4
4
4
4
4
4
4
4
4
4
4
4
4
4
4
4
4
4
4
4
4
4
4
4
4
4
4
4
4
4
4
4
4
4
4
4
4
4
4
4
4
4
4
4
4
4
4
4
4
4
4
4
4
4
4
4
4
4
4
4
4
4
4
4
4
4
4
4
4
4
4
4
4
4
4
4
4
4
4
4
4
4
4
4
4
4
4
4
4
4
4
4
4
4
4
4
4
4
4
4
4
4
4
4
4
4
4
4
4
4
4
4
4
4
4
4
4
4
4
4
4
4
4
4
4
4
4
4
4
4
4
4
4
4
4
4
4
4
4
4
4
4
4
4
4
4
4
4
4
4
4
4
4
4
4
4
4
4
4
4
4
4
4
4
4
4
4
4
4
4
4
4
4
4
4
4
4
4
4
4
4
4
4
4
4
4
4
4
4
4
4
4
4
4
4
4
4
4
4
4
4
4
4
4
4
4
4
4
4
4
4
4
4
4
4
4
4
4
4
4
4
4
4
4
4
4
4
4
4
4
4
4
4
4
4
4
4
4
4
4
4
4
4
4
4
4
4
4
4
4
4
4
4
4
4
4
4
4
4
4
4
4
4
4
4
4
4
4
4
4
4
4
4
4
4
4
4
4
4
4
4
4
4
4
4
4
4
4
4
4
4
4
4
4
4
4
4
4
4
4
4
4
4
4
4
4
4
4
4
4
4
4
4
4
4
4
4
4
4
4
4
4
4
4
4
4
4
4
4
4
4
4
4
4
4
4
4
4
4
4
4
4
4
4
4
4
4
4
4
4
4
4
4
4
4
4
4
4
4
4
4
4
4
4
4
4
4
4
4
4
4
4
4
4
4
4
4
4
4
4
4
4
4
4
4
4
4
4
4
4
4
4
4
4
4
4
4
4
4
4
4
4
4
4
4
4
4
4
4
4
4
4
4
4
4
4
4
4
4
4
4
4
4
4
4
4
4
4
4
4
4
4
4
4
4
4
4
4
4
4
4
4
4
4
4
4
4
4
4
4
4
4
4
4
4
4
4
4
4
4
4
4
4
4
4
4
4
4
4
4
4
4
4
4
4
4
4
4
4
4
4
4
4
4
4
4
4
4
4
4
4
4
4
4
4
4
4
4
4
4
4
4
4
4
4
4
4
4
4
4
4
4
4
4
4
4
4
4
4
4
4
4
4
4
4
4
4
4
4
4
4
4
4
4
4
4
4
4
4
4
4
4
4
4
4
4
4
4
4
4
4
4
4
4
4
4
4
4
4
4
4
4
4
4
4
4
4
4
4
4
4
4
4
4
4
4
4
4
4
4
4
4
4
4
4
4
4
4
4
4
4
4</DataArray>
                <DataArray type="UInt64" Name="region" format="ascii">
0
0
0
0
0
0
0
0
0
0
0
0
0
0
0
0
0
0
0
0
0
0
0
0
0
0
0
0
0
0
0
0
0
0
0
0
0
0
0
0
0
0
0
0
0
0
0
0
0
0
0
0
0
0
0
0
0
0
0
0
0
0
0
0
0
0
0
0
0
0
0
0
0
0
0
0
0
0
0
0
0
0
0
0
0
0
0
0
0
0
0
0
0
0
0
0
0
0
0
0
0
0
0
0
0
0
0
0
0
0
0
0
0
0
0
0
0
0
0
0
0
0
0
0
0
0
0
0
0
0
0
0
0
0
0
0
0
0
0
0
0
0
0
0
0
0
0
0
0
0
0
0
0
0
0
0
0
0
0
0
0
0
0
0
0
0
0
0
0
0
0
0
0
0
0
0
0
0
0
0
0
0
0
0
0
0
0
0
0
0
0
0
0
0
0
0
0
0
0
0
0
0
0
0
0
0
1
1
1
1
1
1
1
1
1
1
1
1
1
1
1
1
1
1
1
1
1
1
1
1
1
1
1
1
1
1
1
1
1
1
1
1
1
1
1
1
1
1
1
1
1
1
1
1
1
1
1
1
1
1
1
1
1
1
1
1
1
1
1
1
1
1
1
1
1
1
1
1
1
1
1
1
1
1
1
1
1
1
1
1
1
1
1
1
1
1
1
1
1
1
1
1
1
1
1
1
1
1
1
1
1
1
1
1
1
1
1
1
1
1
1
1
1
1
1
1
1
1
1
1
1
1
1
1
1
1
1
1
1
1
1
1
1
1
1
1
1
1
1
1
1
1
1
1
1
1
1
1
1
1
1
1
1
1
1
1
1
1
1
1
1
1
1
1
1
1
1
1
1
1
1
1
1
1
1
1
1
1
1
1
1
1
1
1
1
1
1
1
1
1
1
1
1
1
1
1
1
1
1
1
1
1
1
1
1
1
1
1
1
1
1
1
1
1
1
1
1
1
1
1
1
1
1
1
1
1
1
1
1
1
1
1
1
1
1
1
1
1
1
1
1
1
1
1
1
1
1
1
1
1
1
1
1
1
1
1
1
1
1
1
1
1
1
1
1
1
1
1
1
1
1
1
1
1
1
1
1
1
1
1
1
1
1
1
1
1
1
1
1
1
1
1
1
1
1
1
1
1
1
1
1
1
1
1
1
1
1
1
1
1
1
1
1
1
1
1
1
1
1
1
1
1
1
1
1
1
1
1
1
1
1
1
1
1
1
1
1
1
1
1
1
1
1
1
1
1
1
1
1
1
1
1
1
1
1
1
1
1
1
1
1
1
1
1
1
1
1
1
1
1
1
1
1
1
1
1
1
1
1
1
1
1
1
1
1
1
1
1
1
1
1
1
1
1
1
1
1
1
1
1
1
1
1
1
1
1
1
1
1
1
1
1
1
1
1
1
1
1
1
1
1
1
1
1
1
1
1
1
1
1
1
1
1
1
1
1
1
1
1
1
1
1
1
1
1
1
1
1
1
1
1
1
1
1
2
2
2
2
2
2
2
2
2
2
2
2
2
2
2
2
2
2
2
2
2
2
2
2
2
2
2
2
2
2
2
2
2
2
2
2
2
2
2
2
2
2
2
2
2
2
2
2
2
2
2
2
2
2
2
2
2
2
2
2
2
2
2
2
2
2
2
2
2
2
2
2
2
2
2
2
2
2
2
2
2
2
2
2
2
2
2
2
2
2
2
2
2
2
2
2
2
2
2
2
2
2
2
2
2
2
2
2
2
2
2
2
2
2
2
2
2
2
2
2
2
2
2
2
2
2
2
2
2
2
2
2
2
2
2
2
2
2
2
2
2
2
2
2
2
2
2
2
2
2
2
2
2
2
2
2
2
2
2
2
2
2
2
2
2
2
2
2
2
2
2
2
2
2
2
2
2
2
2
2
2
2
2
2
2
2
2
2
2
2
2
2
2
2
2
2
2
2
2
2
3
3
3
3
3
3
3
3
3
3
3
3
3
3
3
3
3
3
3
3
3
3
3
3
3
3
3
3
3
3
3
3
3
3
3
3
3
3
3
3
3
3
3
3
3
3
3
3
3
3
3
3
3
3
3
3
3
3
3
3
3
3
3
3
3
3
3
3
3
3
3
3
3
3
3
3
3
3
3
3
3
3
3
3
3
3
3
3
3
3
3
3
3
3
3
3
3
3
3
3
3
3
3
3
3
3
3
3
3
3
3
3
3
3
3
3
3
3
3
3
3
3
3
3
3
3
3
3
3
3
3
3
3
3
3
3
3
3
3
3
3
3
3
3
3
3
3
3
3
3
3
3
3
3
3
3
3
3
3
3
3
3
3
3
3
3
3
3
3
3
3
3
3
3
3
3
3
3
3
3
3
3
3
3
3
3
3
3
3
3
3
3
3
3
3
3
3
3
3
3
3
3
3
3
3
3
3
3
3
3
3
3
3
3
3
3
3
3
3
3
3
3
3
3
3
3
3
3
3
3
3
3
3
3
3
3
3
3
3
3
3
3
3
3
3
3
3
3
3
3
3
3
3
3
3
3
3
3
3
3
3
3
3
3
3
3
3
3
3
3
3
3
3
3
3
3
3
3
3
3
3
3
3
3
3
3
3
3
3
3
3
3
3
3
3
3
3
3
3
3
3
3
3
3
3
3
3
3
3
3
3
3
3
3
3
3
3
3
3
3
3
3
3
3
3
3
3
3
3
3
3
3
3
3
3
3
3
3
3
3
3
3
3
3
3
3
3
3
3
3
3
3
3
3
3
3
3
3
3
3
3
3
3
3
3
3
3
3
3
3
3
3
3
3
3
3
3
3
3
3
3
3
3
3
3
3
3
3
3
3
3
3
3
3
3
3
3
3
3
3
3
3
3
3
3
3
3
3
3
3
3
3
3
3
3
3
3
3
3
3
3
3
3
3
3
3
3
3
3
3
3
3
3
3
3
3
3
3
3
3
3
3
3
3
3
3
3
3
3
3
3
3
3
3
3
3
3
3
3
3
3
3
3
3
3
3
3
3
3
3
3
3
3
3
3
3
3
3
3
3
3
3
3
3
3
3
3
3
3
3
7
7
7
7
7
7
7
7
7
7
7
7
7
7
7
7
7
7
7
7
7
7
7
7
7
7
7
7
7
7
7
7
7
7
7
7
7
7
7
7
7
7
7
7
7
7
7
7
7
7
7
7
7
20
20
20
20
20
20
20
20
20
20
20
20
20
20
20
20
20
20
20
20
20
20
20
20
20
20
20
20
20
20
20
20
20
20
20
20
20
20
20
20
20
20
20
20
20
20
20
20
20
20
20
20
20
20
20
20
20
20
20
20
20
20
20
20
20
20
20
20
20
20
20
20
20
20
20
20
20
20
20
20</DataArray>
                <DataArray type="UInt64" Name="original_index" format="ascii">
20
38
51
57
63
68
73
88
96
97
126
133
143
155
161
167
170
172
175
180
183
207
225
245
251
277
293
299
346
377
452
471
491
555
567
577
589
615
619
706
710
764
775
786
796
805
829
837
874
875
891
999
1047
1054
1067
1071
1159
1177
1198
1203
1212
1219
1230
1237
1245
1247
1248
1249
1262
1264
1267
1271
1274
1275
1276
1278
1281
1284
1285
1287
1288
1290
1291
1293
1294
1296
1297
1298
1299
1303
1307
1308
1314
1315
1317
1318
1326
1328
1330
1331
1332
1333
1335
1336
1341
1382
1392
1398
1410
1436
1440
1441
1443
1448
1455
1459
1461
1462
1463
1465
1466
1468
1469
1470
1474
1475
1476
1477
1480
1481
1482
1483
1484
1485
1486
1487
1488
1489
1490
1491
1492
1493
1499
1502
1505
1506
1507
1511
1512
1515
1516
1517
1521
1522
1523
1524
1537
1540
1541
1542
1544
1550
1551
1554
1563
1566
1572
1575
1585
1590
1595
1611
1659
1690
1691
1692
1698
1710
1716
1720
1722
1723
1731
1732
1736
1737
1738
1740
1741
1742
1743
1748
1749
1760
1773
1785
1788
1793
1795
1939
1940
1947
1949
1983
1988
1989
2073
2097
2114
2117
2140
2143
2148
2160
2165
2170
2179
2195
2219
2223
2242
2243
2266
2268
2297
2301
2302
2317
2318
2321
2327
2338
2348
2351
2353
2355
2357
2373
2374
2388
2392
2400
2404
2407
2408
2417
2424
2429
2438
2458
2469
2471
2472
2484
2485
2486
2496
2501
2506
2516
2539
2544
2546
2548
2551
2557
2559
2561
2603
2604
2619
2625
2628
2632
2634
2635
2643
2650
2652
2655
2657
2659
2660
2664
2666
2679
2691
2715
2722
2726
2744
2782
2785
2788
2803
2804
2816
2827
2834
2839
2845
2850
2853
2857
2872
2879
2911
2914
2953
2954
2957
2967
2983
3005
3059
3063
3064
3069
3085
3111
3142
3146
3155
3162
3163
3174
3189
3201
3203
3210
3223
3245
3270
3272
3273
3276
3285
3302
3304
3320
3327
3337
3342
3353
3357
3363
3366
3370
3381
3383
3386
3390
3401
3411
3436
3449
3460
3461
3467
3480
3481
3484
3491
3500
3523
3543
3547
3548
3551
3554
3557
3560
3574
3586
3588
3596
3597
3606
3626
3654
3691
3705
3711
3713
3720
3732
3742
3771
3781
3783
3800
3801
3806
3813
3815
3822
3835
3857
3858
3880
3886
3904
3905
3906
3912
3914
3927
3941
3951
3957
3962
3973
3979
3980
3990
4007
4027
4033
4043
4065
4084
4085
4086
4089
4100
4111
4116
4117
4121
4126
4164
4177
4196
4198
4201
4205
4206
4207
4223
4232
4241
4243
4270
4271
4284
4286
4288
4289
4300
4313
4329
4335
4344
4345
4351
4380
4416
4433
4455
4457
4458
4464
4470
4471
4472
4496
4500
4516
4547
4548
4560
4561
4566
4569
4576
4590
4601
4610
4615
4624
4625
4644
4645
4656
4659
4668
4669
4678
4697
4716
4724
4736
4742
4747
4748
4751
4752
4756
4767
4772
4776
4778
4781
4818
4822
4825
4826
4862
4869
4873
4875
4880
4890
4892
4906
4919
4921
4922
4925
4941
4954
4955
4963
4974
4977
4983
4986
5012
5013
5031
5033
5042
5079
5090
5102
5112
5117
5130
5140
5156
5157
5160
5162
5165
5173
5232
5239
5241
5252
5258
5269
5271
5282
5295
5299
5302
5303
5305
5330
5332
5334
5336
5348
5350
5354
5355
5363
5375
5377
5380
5388
5403
5405
5406
5415
5417
5421
5422
5423
5429
5441
5449
5460
5464
5467
5470
5484
5490
5494
5500
5503
5517
5520
5536
5542
5556
5564
5568
5569
5585
5615
5622
5661
5710
5752
5765
5786
5787
5833
5857
5874
5880
5887
5908
5915
5921
5922
5937
5969
5980
5981
5990
6001
6003
6024
6025
6045
6064
6073
6075
6077
6080
6081
6084
6090
6099
6100
6104
6114
6137
6142
6152
6162
6165
6173
6181
6189
6191
6206
6213
6214
6215
6232
6243
6284
6382
6383
6384
6385
6386
6387
6388
6389
6390
6411
6425
6433
6436
6481
6485
6487
6557
6561
6568
6584
6597
6617
6630
6648
6649
6652
6706
6713
6728
6741
6768
6807
6857
6858
6864
6876
6879
6901
6933
7012
7031
7129
7179
7202
7288
7462
7490
7491
7497
7501
7504
7505
7506
7507
7511
7513
7533
7545
7551
7552
7571
7626
7703
7706
7712
7715
7716
7718
7720
7722
7723
7725
7727
7728
7729
7731
7763
7768
7771
7800
7803
7807
7808
7816
7817
7818
7821
7822
7824
7826
7828
7829
7830
7833
7834
7835
7836
7837
7839
7840
7841
7842
7843
7845
7848
7849
7851
7856
7857
7859
7864
7865
7867
7871
7872
7873
7874
7884
7902
7903
7906
7907
7908
7909
7916
7918
7920
7921
7932
7933
7937
7939
7941
7963
7964
7975
7996
8008
8012
8021
8038
8040
8044
8045
8047
8053
8054
8056
8057
8059
8060
8063
8064
8065
8067
8068
8069
8070
8071
8077
8078
8079
8080
8081
8082
8086
8094
8095
8096
8102
8133
8134
8137
8138
8140
8141
8142
8149
8153
8163
8168
8175
8182
8183
8316
8347
8350
8352
8353
8359
8360
8361
8364
8365
8366
8368
8370
8371
8373
8375
8377
8378
8379
8380
8381
8382
8383
8384
8385
8476
8504
8507
8508
8514
8515
8535
8542
8556
8557
8588
8591
8602
8622
8627
8638
8639
8645
8652
8662
8703
8723
8726
8731
8738
8764
8783
8784
8793
8794
8797
8801
8807
8812
8816
8831
8832
8847
8879
8886
8888
8889
8896
8899
8901
8907
8925
8937
8942
8962
8966
8971
8977
8978
8983
8984
9010
9014
9033
9041
9057
9087
9110
9127
9163
9213
9225
9226
9234
9250
9255
9257
9267
9272
9306
9319
9320
9336
9340
9341
9347
9392
9413
9424
9448
9456
9462
9465
9470
9476
9490
9521
9541
9550
9561
9565
9581
9584
9591
9595
9600
9610
9616
9622
9633
9642
9650
9653
9657
9668
9677
9704
9708
9725
9731
9738
9751
9761
9780
9782
9794
9802
9807
9809
9816
9819
9820
9823
9824
9837
9874
9879
9896
9898
9902
9911
9914
9916
9921
9924
9926
9933
9934
9942
9951
9953
9968
9981
9984
9998
10003
10006
10008
10020
10028
10041
10052
10053
10065
10083
10097
10117
10136
10140
10158
10174
10175
10179
10211
10240
10247
10282
10304
10312
10319
10330
10349
10364
10380
10383
10391
10396
10441
10443
10448
10453
10469
10485
10497
10498
10539
10552
10555
10556
10562
10586
10593
10614
10639
10642
10658
10678
10682
10691
10732
10789
10806
10809
10830
10834
10851
10852
10855
10874
10898
10904
10906
10911
10927
10943
10952
10954
10957
10959
10983
10985
10986
10993
10996
11026
11055
11058
11083
11088
11094
11098
11109
11148
11169
11171
11174
11184
11186
11199
11201
11207
11208
11214
11221
11228
11231
11239
11244
11250
11253
11264
11269
11274
11275
11277
11285
11290
11303
11312
11328
11330
11335
11376
11391
11394
11406
11413
11419
11439
11443
11452
11459
11464
11465
11484
11488
11496
11497
11506
11552
11555
11566
11572
11577
11581
11583
11590
11592
11595
11598
11606
11622
11624
11634
11643
11662
11663
11671
11677
11685
11691
11692
11697
11705
11717
11720
11722
11729
11753
11757
11760
11772
11775
11778
11784
11800
11804
11808
11812
11813
11823
11825
11840
11854
11867
11881
11882
11894
11919
11922
11923
11924
11925
11937
11948
11955
11962
11967
11985
11998
12007
12021
12032
12033
12042
12078
12089
12090
12101
12105
12107
12139
12188
12204
12213
12214
12252
12256
12262
12269
12270
12275
12292
12327
12336
12344
12345
12376
12379
12382
12384
12388
12391
12410
12418
12427
12430
12431
12438
12458
12463
12485
12494
12511
12520
12543
12546
12560
12571
12576
12603
12608
12614
12619
12623
12646
12701
12705
12735
12737
12741
12750
12759
12760
12769
12774
12787
12789
12794
12799
12818
12835
12840
12856
12857
12858
12863
12869
12876
12881
12882
12885
12887
12892
12898
12908
12916
12925
12952
12960
12986
12988
12995
13001
13004
13016
13021
13026
13029
13032
13043
13050
13082
13086
13088
13092
13113
13123
13132
13148
13161
13162
13163
13172
13186
13198
13264
13314
13319
13349
13350
13351
13353
13354
13355
13374
13375
13377
13379
13386
13387
13388
13389
13390
13391
13392
13393
13394
13395
13396
13397
13429
13465
13466
13467
2454
2455
2456
2457
2458
2459
2461
2476
2477
2478
2479
2480
2481
2482
2483
2484
2486
2492
2527
2528
2529
2660
2662
2663
2664
2665
2667
2680
2681
2693
2694
2695
2696
2697
2700
2701
2702
2703
2704
2705
2706
2707
2708
2709
2710
2711
2716
2718
2939
2940
2961
2965
2966
3889
3891
3913
3914
3915
3916
3917
3918
3919
3920
3921
3922
3923
3924
3925
3926
3927
3928
3953
3954
3955
3956
3957
3958
3959
3960
3961
3962
3963
3964
3965
3982
3992
3993
3994
3995
4004
4006
4007
4008
4009
4010
4011
4082
4084
4085
4086
4087
4088
4089
4090
4093
4094
4095
4096
4097
4098
4099
4100
4101
4180
4181
4182
4183
4184
4185
4186
4225
4226
4227
4228
4241
4242
4420
4422
4423
4424
4425
4426
4427</DataArray>
            </CellData>
            <Cells>
                <DataArray type="UInt64" Name="connectivity" format="ascii">
0 1 2 3 
4 5 6 7 
8 9 10 11 
12 13 14 15 
16 9 17 18 
19 5 20 21 
22 23 24 25 
26 27 28 9 
28 29 30 31 
32 33 34 35 
36 10 37 11 
13 38 14 15 
16 26 9 18 
39 8 40 41 
23 42 22 24 
43 28 31 44 
27 45 9 46 
47 24 48 25 
49 50 51 52 
27 28 43 44 
50 53 51 52 
54 16 4 18 
33 32 55 35 
23 56 57 25 
58 59 60 61 
56 62 63 34 
64 45 8 41 
25 65 2 3 
59 56 60 42 
56 42 57 34 
47 22 24 25 
53 54 16 4 
66 4 17 18 
59 67 60 68 
66 5 7 69 
67 70 71 68 
71 38 72 41 
73 36 22 74 
62 63 34 35 
38 14 15 71 
40 75 42 22 
76 37 77 74 
5 6 7 21 
19 53 4 6 
5 19 4 6 
78 66 17 79 
9 26 10 18 
7 5 21 80 
59 67 72 75 
45 27 64 46 
26 29 54 16 
39 64 8 41 
45 81 43 15 
56 59 75 42 
81 64 38 15 
43 81 12 15 
27 29 28 44 
25 57 1 34 
27 45 64 81 
26 28 16 9 
19 82 6 21 
9 10 17 18 
13 81 12 83 
81 43 12 83 
84 76 77 74 
46 39 8 36 
29 26 28 16 
53 51 52 54 
26 27 9 46 
26 27 29 28 
53 19 85 51 
50 53 85 51 
28 27 45 9 
5 4 66 7 
4 16 17 18 
28 29 31 44 
10 17 18 79 
81 27 43 44 
29 54 16 30 
29 52 54 30 
54 53 16 30 
52 53 54 30 
28 29 16 30 
50 53 52 30 
37 36 77 74 
23 56 42 57 
27 45 81 43 
57 24 25 1 
76 37 86 77 
56 63 60 34 
54 4 6 18 
27 28 45 43 
31 29 87 44 
10 78 17 79 
52 50 30 88 
70 67 59 68 
17 66 18 79 
49 50 52 89 
29 52 30 87 
29 30 31 87 
52 50 88 89 
52 88 87 89 
31 30 88 87 
30 52 88 87 
43 81 44 83 
47 22 90 24 
45 64 81 15 
81 38 13 15 
37 36 11 77 
9 26 46 10 
38 70 71 72 
59 70 68 61 
81 13 12 15 
9 46 8 10 
1 32 33 34 
37 78 91 86 
67 59 60 42 
70 92 71 68 
59 67 75 42 
56 25 33 34 
38 64 72 41 
67 70 59 72 
70 67 71 72 
8 39 40 36 
45 9 46 8 
22 73 74 90 
64 39 72 41 
46 8 10 36 
40 8 36 73 
64 45 46 8 
39 64 46 8 
67 72 40 41 
15 38 71 41 
64 38 15 41 
72 39 40 41 
45 64 15 41 
67 71 72 41 
75 67 40 42 
72 39 75 40 
67 72 75 40 
54 26 16 18 
56 75 23 42 
56 58 59 60 
60 59 68 61 
66 4 18 7 
36 73 77 74 
40 73 22 24 
22 73 90 24 
0 32 93 2 
66 7 94 69 
19 82 51 6 
53 54 4 6 
5 19 6 21 
53 19 51 6 
63 56 60 58 
1 25 2 3 
10 9 17 11 
36 8 11 73 
4 6 18 7 
78 10 17 11 
53 51 54 6 
82 19 20 21 
10 37 78 79 
78 37 11 77 
18 66 7 79 
94 7 80 69 
66 7 79 94 
7 5 80 69 
37 78 79 91 
37 78 86 77 
48 47 25 65 
95 76 84 74 
37 91 76 86 
11 36 73 77 
42 40 22 24 
76 86 84 77 
36 40 73 22 
75 23 42 22 
37 10 78 11 
42 23 57 24 
47 22 74 90 
8 10 36 11 
95 47 74 90 
39 75 40 22 
39 40 36 22 
90 47 24 48 
1 25 33 2 
84 95 74 90 
77 84 74 90 
73 77 74 90 
23 57 24 25 
96 58 62 63 
48 25 1 3 
32 93 33 55 
25 48 65 3 
32 1 33 2 
93 32 33 2 
24 48 25 1 
32 0 1 2 
56 57 25 34 
56 33 62 34 
56 60 42 34 
58 56 62 63 
33 55 62 35 
25 1 33 34 
33 62 34 35 
18 7 97 98 
93 55 99 100 
49 89 52 101 
2 65 102 103 
64 38 72 104 
62 58 96 105 
106 97 7 98 
107 108 109 110 
102 111 112 113 
114 115 116 117 
64 104 118 117 
22 47 74 119 
75 39 72 120 
121 122 123 101 
39 75 124 120 
125 126 127 128 
129 130 131 132 
110 133 134 128 
114 135 136 115 
137 138 112 134 
25 56 33 138 
76 91 37 139 
79 94 7 98 
23 140 124 138 
141 142 106 98 
143 144 118 120 
112 102 113 100 
91 37 139 145 
146 147 126 125 
83 44 115 117 
123 29 116 101 
27 64 118 117 
148 149 134 150 
46 27 64 118 
58 133 151 134 
97 106 7 152 
137 148 153 150 
140 138 102 112 
65 47 25 102 
56 58 62 133 
124 23 138 151 
33 55 93 100 
114 135 115 117 
105 110 134 154 
148 104 120 155 
130 131 132 156 
36 37 10 145 
104 144 118 117 
36 74 37 119 
111 102 103 100 
22 39 124 36 
145 131 98 132 
157 143 118 158 
159 147 110 128 
33 56 62 133 
131 160 145 98 
105 109 110 154 
79 91 94 161 
162 163 114 164 
165 137 166 112 
167 168 139 145 
109 105 110 169 
125 127 99 128 
131 97 132 156 
110 125 170 169 
87 164 116 101 
125 146 110 170 
142 160 131 98 
146 147 125 110 
72 38 70 155 
54 6 171 156 
126 172 127 128 
59 70 61 155 
145 168 161 98 
81 83 173 117 
56 58 133 151 
174 175 167 145 
82 6 97 171 
176 175 124 158 
26 10 132 46 
123 54 171 156 
167 129 160 145 
165 137 112 134 
72 39 104 120 
177 97 178 152 
165 166 179 112 
99 180 100 128 
130 157 181 116 
164 114 115 116 
49 123 182 101 
172 147 180 128 
55 133 99 100 
144 143 183 120 
121 123 116 101 
148 184 104 155 
185 123 171 156 
186 187 182 171 
121 130 181 116 
180 113 100 128 
132 26 116 156 
188 165 113 128 
82 178 186 171 
33 138 133 100 
189 108 146 110 
165 147 159 128 
58 96 105 154 
133 105 110 134 
75 72 155 120 
140 22 124 119 
29 87 115 116 
51 82 186 171 
25 2 102 100 
23 75 56 151 
7 94 106 98 
190 153 176 150 
184 148 191 107 
142 192 177 97 
65 111 102 103 
130 132 116 156 
166 190 176 140 
187 123 182 171 
192 193 177 178 
159 147 146 110 
133 58 105 134 
147 188 180 128 
135 104 173 117 
135 144 104 117 
194 135 104 173 
175 157 129 158 
118 143 120 158 
143 175 176 158 
81 27 44 117 
165 179 188 113 
22 36 124 119 