<?xml version="1.0" encoding="UTF-8"?>
<VTKFile type="UnstructuredGrid" version="0.1" byte_order="LittleEndian">
    <UnstructuredGrid>
        <Piece NumberOfPoints="354" NumberOfCells="1557">
            <PointData>
                <DataArray type="UInt64" Name="original_index" format="ascii" NumberOfComponents="1">
749
748
477
685
577
615
614
901
478
530
533
481
808
752
594
629
934
898
807
532
750
805
423
689
688
580
860
535
810
856
575
531
576
857
900
858
425
80
107
79
617
579
581
536
537
811
899
855
482
534
753
809
861
690
106
812
862
538
109
82
81
427
686
420
613
484
483
426
755
75
421
479
806
102
103
424
574
804
428
692
859
108
691
751
480
422
687
76
104
78
83
903
754
756
486
485
905
618
619
904
419
74
77
578
105
935
693
101
2389
2421
2445
2241
2033
2353
2392
1721
1720
1931
2459
1930
1929
1987
2295
2413
2034
2035
2297
2363
1719
1697
2219
2294
2307
1698
1718
1699
2231
2038
2083
2039
2417
2234
2448
2081
2082
2037
2248
2237
2261
2189
2275
2080
2118
2341
1926
2432
1703
2265
1980
1981
1923
362
1702
2191
1985
2420
1700
2010
2041
2085
2359
368
369
1694
2406
2196
1988
2270
2120
2447
2040
2084
1927
2121
2036
1983
2383
2385
2466
2281
2230
2274
2211
366
1986
1696
1982
1701
1924
1984
2116
2079
2078
364
1925
2288
1928
365
1695
1922
363
2101
2058
367
370
371
2119
1006
1067
1005
183
182
1011
1126
1174
1175
1069
1124
189
188
1008
1007
185
1217
1173
1004
1066
1009
186
1073
1127
1072
1170
1121
1122
187
1010
1071
1125
1070
1211
1212
184
1123
1068
1171
1172
1216
1176
1012
1246
1593
1549
2711
2767
1551
1596
2686
2762
1732
2554
2626
1767
1731
2557
2689
2816
2502
2650
1730
2581
1437
1757
341
2837
2765
2568
2870
2577
2757
2759
2841
2846
2614
2780
2548
1768
1552
1499
1440
1760
2498
2705
1498
1497
1548
2679
1729
2793
2549
2559
2656
2496
2696
1733
2830
2864
1769
2641
2842
1594
2615
2744
2817
2515
2523
1495
1550
1761
2539
1438
1758
1496
2719
1766
1762
2727
1442
1439
1734
2663
2768
1735
1494
1595
1770
344
343
342
1441
1759
345
340
346</DataArray>
            </PointData>
            <Points>
                <DataArray type="Float64" Name="Points" format="ascii" NumberOfComponents="3">
7445.65 -2379.32 1045.06
8146.58 -2379.25 901.513
8146.85 -2379.21 1101.47
7794.45 -2980.91 964.868
6045.88 -1176.57 1544.09
5693 -575.106 1605.12
6396.99 -574.86 1475.75
5692.64 -575.107 1405.06
7446 -2379.28 1244.99
7798.49 -1777.63 1183.59
5692.91 -1778.21 1602.76
5338.07 -2379.68 1650.92
4986.6 -1778.26 1522.51
5337.61 -2379.66 1451.05
8017.76 -328.549 1146.78
7429.8 33.1729 1262.82
7447.97 27.0184 1059.27
7799.98 -574.457 993.57
5692.48 -1778.21 1402.85
6396.17 -1777.99 1469.35
6744.1 -2379.42 1185.8
7097.39 -1777.85 1128.39
5687.08 -2980.97 1569.41
4981.58 -2980.99 1491.72
5686.66 -2980.98 1369.9
3922.33 -1176.49 1861.43
3921.82 -1176.42 1661.37
4277.79 -1778.21 1821.61
3564.57 -1777.7 1690.35
6748.24 -1176.39 1208.05
7449.77 -1176.1 1264.52
7097.77 -1777.79 1328.32
6748.64 -1176.32 1408.01
6045.49 -1176.6 1344.2
6396.59 -574.911 1275.59
5340.62 -1176.74 1469.3
4274.37 -2981 1797.27
3918.41 -3582.59 1834.31
3918.82 -3582.59 1641.31
4626.8 -3582.59 1734.99
4277.85 -575.07 1817.84
4633.26 -1176.79 1777.62
3208.83 -1175.79 1915.26
3565.33 -1777.79 1892.85
2850.66 -1777.1 1926.75
2850.01 -1777.09 1725.23
7098.86 -574.673 1137.32
7449.43 -1176.18 1064.62
4631.31 -2379.71 1764.93
4986.94 -1778.3 1722.04
4630.84 -2379.63 1564.89
4277.24 -1778.12 1621.1
3208.16 -1175.74 1715.32
4274.13 -2980.95 1599.22
4626.92 -3582.59 1539.55
2135.45 -1776.87 1722.67
2492.89 -1175.08 1731.92
2135.88 -1776.69 1922.28
2492.87 -3582.59 1748.4
2493.24 -3582.59 1948.1
3207.4 -3582.59 1912.7
2850.02 -2980.81 1924.35
7092.72 -2980.93 1104.26
7794.75 -2980.89 1164.78
7099.25 -574.583 1337.43
3207.59 -2379.12 1913.4
3921.01 -2379.52 1855.23
3563.57 -2980.89 1879.49
3206.88 -2379.09 1709.77
7442.96 -3582.59 1229.57
7093.09 -2980.91 1304.15
6744.51 -2379.38 1385.73
6395.75 -1778.04 1269.45
7442.63 -3582.59 1029.71
6740.24 -3582.59 1165.56
4981.99 -2981.01 1691.01
8150.08 -1175.93 1117.7
7798.18 -1777.69 983.645
2136.22 -2981.05 1921.95
2849.63 -2980.97 1720.63
4632.77 -1176.74 1577.04
3207.45 -3582.59 1716.63
3563.14 -2980.87 1679
6041.63 -2379.55 1322.23
6042.08 -2379.52 1522.14
6390.65 -2980.94 1439.66
6390.2 -2980.95 1239.74
6740.63 -3582.59 1365.36
6036.97 -3582.59 1296.79
5332.99 -3582.59 1621.01
1778.37 -3582.59 1931.6
4277.4 -575.032 1617.85
3920.46 -2379.43 1654.86
2492.53 -2378.93 1726.4
1779.63 -2378.97 1903.67
2492.9 -2378.77 1927.97
2851.23 -573.754 1729.7
3566.28 -574.469 1889.7
2851.99 -573.801 1931.95
3565.63 -574.459 1689.23
8495.96 -2980.88 1023.2
8144.67 -3582.59 1090.57
6037.4 -3582.59 1496.46
5340.95 -1176.76 1668.98
5332.68 -3582.59 1422.48
6745.89 26.7499 1198.19
2135.74 -2981.16 1721.25
8144.41 -3582.59 890.677
8065.51 -2121.58 1852.44
7565.75 -1249.56 2031.61
8724.56 -1133.88 1718.33
2490.46 -1561.71 2593.35
2829.08 -1769.26 3247.13
2863.61 -2242.59 2573.4
3238.73 -1586.92 2502.44
8477.9 -3582.59 2642.68
7771.8 -3582.59 2642.68
8477.9 -2978.15 3247.13
8194.72 -3018.43 2288.48
7771.8 -2978.15 3247.13
7065.7 -2978.15 3247.13
7418.75 -2373.7 3247.13
7634.99 -2652.73 2565.78
7644.74 -417.151 1791.7
3535.18 -1769.26 3247.13
4241.28 -1769.26 3247.13
3618.17 -2194.4 2543.67
3997.74 -1506.17 2635.08
7065.7 -3582.59 2642.68
6499.29 -3582.59 2022.44
6359.59 -2572.82 2392.2
7217.66 -2585.67 1925.33
6568.72 -947.565 2059.75
5789.96 -3582.59 2151.27
6359.59 -3582.59 2642.68
5075.77 -3582.59 2272.04
5514.6 -2793.46 2404.84
6359.59 -1769.26 3247.13
6712.65 -1164.81 3247.13
7065.7 -1769.26 3247.13
6756.71 -1994.11 2616.98
5252.43 -889.799 2454.18
4647.8 -1549.22 2372.83
5300.44 -1164.81 3247.13
6006.54 -1164.81 3247.13
5653.49 -1769.26 3247.13
5300.44 -1600.74 2627
8698.41 -2583.72 2003.44
6501.09 -156.564 2030.33
7148.68 -234.461 2290.96
7065.7 -965.695 2571.75
4594.34 -1164.81 3247.13
4947.39 -560.364 3247.13
4353.45 -900.177 2538.31
4947.39 -2978.15 3247.13
4740.89 -2905.56 2491.61
2121.93 -3582.59 2541.5
6867.06 -1592.9 1996.56
2476.03 -2373.7 3247.13
3182.13 -2373.7 3247.13
2829.08 -2978.15 3247.13
2476.03 -3582.59 3247.13
2880.12 -3582.59 2531.47
6006.54 -1570.14 2431.83
6006.54 -2373.7 3247.13
3888.23 -2890.88 2592.78
4356.15 -3582.59 2380.56
9151.04 -1051.82 3247.13
8477.9 -1769.26 3247.13
8124.85 -1164.81 3247.13
8124.85 -1570.14 2583.75
6712.65 -3582.59 3247.13
7418.75 -3582.59 3247.13
8613.75 -3582.59 1610.15
8830.95 -2964.92 2629.46
7418.75 -1968.37 2294.23
8124.85 -2373.7 3247.13
8813.22 -1921.06 2497.92
6359.59 -560.364 3247.13
6102.02 -815.25 2609.64
7771.8 -1769.26 3247.13
7418.75 -1164.81 3247.13
5653.49 -2978.15 3247.13
7065.7 -560.364 3247.13
4947.39 -1769.26 3247.13
4594.34 -2373.7 3247.13
4355.41 -2197.51 2433.1
5081.99 -2217.41 2311.12
3182.13 -2871.24 2642.66
5808.99 -2193.35 2163
5739.56 -205.308 2424.46
8149.81 -758.069 2188.42
3561.74 -950.18 2572.64
5300.44 -3582.59 3247.13
6712.65 -2373.7 3247.13
7206.02 -3582.59 1888.24
3888.23 -2373.7 3247.13
3628.84 -3582.59 2471.61
3535.18 -2978.15 3247.13
5300.44 -2373.7 3247.13
3535.18 -560.364 3247.13
3888.23 -1164.81 3247.13
3182.13 -1164.81 3247.13
3888.23 -3582.59 3247.13
4241.28 -2978.15 3247.13
2114.15 -2388.71 2565.19
6359.59 -2978.15 3247.13
4594.34 -3582.59 3247.13
7910.74 -3582.59 1750.32
2122.97 -2978.15 3247.13
3182.13 -3582.59 3247.13
7952.23 -328.739 3247.13
8551.63 -690.278 3247.13
6006.54 -3582.59 3247.13
8124.85 -3582.59 3247.13
8830.95 -3582.59 3247.13
5653.49 -560.364 3247.13
6390.23 -2980.95 439.733
6744.12 -2379.41 385.799
7092.74 -2980.93 304.256
6740.26 -3582.59 365.552
7442.65 -3582.59 229.702
2849.65 -2980.98 920.626
3564.59 -1777.71 890.351
3921.83 -1176.43 861.372
3208.16 -1175.76 915.315
5337.64 -2379.66 651.045
4986.63 -1778.26 722.509
2492.85 -3582.59 948.086
3207.49 -3582.59 916.628
4981.61 -2980.98 691.712
5686.69 -2980.98 569.899
5332.71 -3582.59 622.477
2851.23 -573.776 929.7
4632.8 -1176.73 777.036
7794.47 -2980.91 164.865
7445.67 -2379.32 245.053
4274.17 -2980.94 799.218
4626.96 -3582.59 739.546
2492.53 -2378.96 926.398
2850.01 -1777.12 925.231
3206.9 -2379.1 909.765
6748.26 -1176.39 408.044
7097.41 -1777.84 328.387
6395.78 -1778.03 469.441
3918.86 -3582.59 841.301
3563.18 -2980.87 879.001
3920.51 -2379.43 854.853
4277.28 -1778.12 821.1
4630.87 -2379.63 764.881
7098.88 -574.667 337.318
6396.61 -574.905 475.585
6036.99 -3582.59 496.79
5692.51 -1778.21 602.842
6041.65 -2379.54 522.229
6045.52 -1176.59 544.198
5340.65 -1176.73 669.29
3565.62 -574.481 889.235
2492.89 -1175.1 931.916
2135.7 -2981.16 921.253
6745.92 26.7572 398.189
3888.23 -1164.81 -1837.56
4241.28 -1769.26 -1837.56
4180.05 -1282.75 -889.548
3574.63 -1386.97 -1242.41
5653.49 -1769.26 -1837.56
6006.54 -1164.81 -1837.56
5470.43 -1470.85 -1191.49
6006.54 -1968.37 -1227.68
4881.37 -3582.59 87.4163
5207.66 -2834.72 -101.329
4108.08 -2580.43 -183.212
5127.8 -3582.59 -567.773
5579.14 -3582.59 -32.7121
4167.53 -1130.16 -106.496
3227.75 -1544.55 273.143
3858.32 -1971.14 212.415
4947.39 -1363.93 -686.543
4656.23 -2026.07 -350.86
6278.25 -3582.59 -160.322
5930.22 -2768.88 -80.1611
2829.08 -2978.15 -1837.56
2829.08 -3582.59 -1233.12
3182.13 -3582.59 -1837.56
3339 -2687.4 -1227.08
6291.26 -1366.9 -92.2087
3888.23 -540.167 -885.075
3579.69 -1437.54 -524.979
3274.77 -846.288 30.2603
2859.94 -2162.58 316.583
5921.8 -1961.8 -162.912
5699.9 -1366.16 -511.719
5419.55 -2023.61 -702.501
2502.5 -1567.39 123.905
2482.5 -769.849 360.838
4594.34 -1917.6 -1138.45
4441.73 -3582.59 -457.302
6359.59 -1769.26 -1837.56
6006.54 -2373.7 -1837.56
4947.39 -2978.15 -1837.56
4947.39 -3582.59 -1233.12
4947.39 -2572.82 -853.042
4241.28 -2572.82 -1209.32
5300.44 -2373.7 -1837.56
4594.34 -2373.7 -1837.56
3535.18 -1769.26 -1837.56
3623.22 -2123.16 -916.338
6977.2 -3582.59 -293.129
6623.08 -2947.76 -251.164
6729.22 -2069.42 -725.105
6712.65 -2831.17 -1086.14
7301.03 -2839.56 -493.738
5916.99 -774.027 -154.015
5228.75 -1576.58 9.07957
4187.32 -3582.59 194.828
4063.94 -3044.03 -714.11
4608.07 -767.505 -1254.94
3768.27 -3582.59 -365.887
3148.84 -2812.72 133.408
3476.5 -2696.39 -499.144
4594.34 -1164.81 -1837.56
2784.45 -2541.7 -595.498
2930.56 -2115.31 -1187.1
3300.19 -2045.16 -260.467
5300.44 -759.48 -1120.57
4902.98 -470.84 -260.403
3182.13 -2373.7 -1837.56
4947.39 -1769.26 -1837.56
5653.49 -3582.59 -1233.12
5823.11 -2732.97 -987.942
3535.18 -2978.15 -1837.56
3535.18 -3582.59 -1233.12
3888.23 -2373.7 -1837.56
3025.38 -1137.18 -871.132
5820.4 -3582.59 -689.824
6359.59 -3582.59 -1233.12
2476.03 -2934.33 -1189.3
6359.59 -2978.15 -1837.56
4241.28 -2978.15 -1837.56
3499.81 -3582.59 280.586
6134.85 -1012.41 -976.602
7311.55 -1685.02 -403.578
2823.71 -3582.59 331.214
2476.03 -2373.7 -1837.56
5300.44 -1164.81 -1837.56
3116.03 -3582.59 -304.829
5300.44 -3582.59 -1837.56
4594.34 -3582.59 -1837.56
3888.23 -3582.59 -1837.56
5653.49 -2978.15 -1837.56
4241.28 -3582.59 -1233.12
6006.54 -3582.59 -1837.56
2476.03 -3582.59 -1837.56
6712.65 -3582.59 -1837.56</DataArray>
            </Points>
            <CellData>
                <DataArray type="UInt64" Name="partition" format="ascii">
0
0
0
0
0
0
0
0
0
0
0
0
0
0
0
0
0
0
0
0
0
0
0
0
0
0
0
0
0
0
0
0
0
0
0
0
0
0
0
0
0
0
0
0
0
0
0
0
0
0
0
0
0
0
0
0
0
0
0
0
0
0
0
0
0
0
0
0
0
0
0
0
0
0
0
0
0
0
0
0
0
0
0
0
0
0
0
0
0
0
0
0
0
0
0
0
0
0
0
0
0
0
0
0
0
0
0
0
0
0
0
0
0
0
0
0
0
0
0
0
0
0
0
0
0
0
0
0
0
0
0
0
0
0
0
0
0
0
0
0
0
0
0
0
0
0
0
0
0
0
0
0
0
0
0
0
0
0
0
0
0
0
0
0
0
0
0
0
0
0
0
0
0
0
0
0
0
0
0
0
0
0
0
0
0
0
0
0
0
0
0
0
0
0
0
0
0
0
0
0
0
0
0
0
0
0
0
0
0
0
0
0
0
0
0
0
0
0
0
0
0
0
0
0
0
0
0
0
0
0
0
0
0
0
0
0
0
0
0
0
0
0
0
0
0
0
0
0
0
0
0
0
0
0
0
0
0
0
0
0
0
0
0
0
0
0
0
0
0
0
0
0
0
0
0
0
0
0
0
0
0
0
0
0
0
0
0
0
0
0
0
0
0
0
0
0
0
0
0
0
0
0
0
0
0
0
0
0
0
0
0
0
0
0
0
0
0
0
0
0
0
0
0
0
0
0
0
0
0
0
0
0
0
0
0
0
0
0
0
0
0
0
0
0
0
0
0
0
0
0
0
0
0
0
0
0
0
0
0
0
0
0
0
0
0
0
0
0
0
0
0
0
0
0
0
0
0
0
0
0
0
0
0
0
0
0
0
0
0
0
0
0
0
0
0
0
0
0
0
0
0
0
0
0
0
0
0
0
0
0
0
0
0
0
0
0
0
0
0
0
0
0
0
0
0
0
0
0
0
0
0
0
0
0
0
0
0
0
0
0
0
0
0
0
0
0
0
0
0
0
0
0
0
0
0
0
0
0
0
0
0
0
0
0
0
0
0
0
0
0
0
0
0
0
0
0
0
0
0
0
0
0
0
0
0
0
0
0
0
0
0
0
0
0
0
0
0
0
0
0
0
0
0
0
0
0
0
0
0
0
0
0
0
0
0
0
0
0
0
0
0
0
0
0
0
0
0
0
0
0
0
0
0
0
0
0
0
0
0
0
0
0
0
0
0
0
0
0
0
0
0
0
0
0
0
0
0
0
0
0
0
0
0
0
0
0
0
0
0
0
0
0
0
0
0
0
0
0
0
0
0
0
0
0
0
0
0
0
0
0
0
0
0
0
0
0
0
0
0
0
0
0
0
0
0
0
0
0
0
0
0
0
0
0
0
0
0
0
0
0
0
0
0
0
0
0
0
0
0
0
0
0
0
0
0
0
0
0
0
0
0
0
0
0
0
0
0
0
0
0
0
0
0
0
0
0
0
0
0
0
0
0
0
0
0
0
0
0
0
0
0
0
0
0
0
0
0
0
0
0
0
0
0
0
0
0
0
0
0
0
0
0
0
0
0
0
0
0
0
0
0
0
0
0
0
0
0
0
0
0
0
0
0
0
0
0
0
0
0
0
0
0
0
0
0
0
0
0
0
0
0
0
0
0
0
0
0
0
0
0
0
0
0
0
0
0
0
0
0
0
0
0
0
0
0
0
0
0
0
0
0
0
0
0
0
0
0
0
0
0
0
0
0
0
0
0
0
0
0
0
0
0
0
0
0
0
0
0
0
0
0
0
0
0
0
0
0
0
0
0
0
0
0
0
0
0
0
0
0
0
0
0
0
0
0
0
0
0
0
0
0
0
0
0
0
0
0
0
0
0
0
0
0
0
0
0
0
0
0
0
0
0
0
0
0
0
0
0
0
0
0
0
0
0
0
0
0
0
0
0
0
0
0
0
0
0
0
0
0
0
0
0
0
0
0
0
0
0
0
0
0
0
0
0
0
0
0
0
0
0
0
0
0
0
0
0
0
0
0
0
0
0
0
0
0
0
0
0
0
0
0
0
0
0
0
0
0
0
0
0
0
0
0
0
0
0
0
0
0
0
0
0
0
0
0
0
0
0
0
0
0
0
0
0
0
0
0
0
0
0
0
0
0
0
0
0
0
0
0
0
0
0
0
0
0
0
0
0
0
0
0
0
0
0
0
0
0
0
0
0
0
0
0
0
0
0
0
0
0
0
0
0
0
0
0
0
0
0
0
0
0
0
0
0
0
0
0
0
0
0
0
0
0
0
0
0
0
0
0
0
0
0
0
0
0
0
0
0
0
0
0
0
0
0
0
0
0
0
0
0
0
0
0
0
0
0
0
0
0
0
0
0
0
0
0
0
0
0
0
0
0
0
0
0
0
0
0
0
0
0
0
0
0
0
0
0
0
0
0
0
0
0
0
0
0
0
0
0
0
0
0
0
0
0
0
0
0
0
0
0
0
0
0
0
0
0
0
0
0
0
0
0
0
0
0
0
0
0
0
0
0
0
0
0
0
0
0
0
0
0
0
0
0
0
0
0
0
0
0
0
0
0
0
0
0
0
0
0
0
0
0
0
0
0
0
0
0
0
0
0
0
0
0
0
0
0
0
0
0
0
0
0
0
0
0
0
0
0
0
0
0
0
0
0
0
0
0
0
0
0
0
0
0
0
0
0
0
0
0
0
0
0
0
0
0
0
0
0
0
0
0
0
0
0
0
0
0
0
0
0
0
0
0
0
0
0
0
0
0
0
0
0
0
0
0
0
0
0
0
0
0
0
0
0
0
0
0
0
0
0
0
0
0
0
0
0
0
0
0
0
0
0
0
0
0
0
0
0
0
0
0
0
0
0
0
0
0
0
0
0
0
0
0
0
0
0
0
0
0
0
0
0
0
0
0
0
0
0
0
0
0
0
0
0
0
0
0
0
0
0
0
0
0
0
0
0
0
0
0
0
0
0
0
0
0
0
0
0
0
0
0
0
0
0
0
0
0
0
0
0
0
0
0
0
0
0
0
0
0
0
0
0
0
0
0
0
0
0
0
0
0
0
0
0
0
0
0
0
0
0
0
0
0
0
0
0
0
0
0
0
0
0
0
0
0
0
0
0
0
0
0
0
0
0
0
0
0
0
0
0
0
0
0
0
0
0
0
0
0
0
0
0
0
0
0
0
0
0
0
0
0
0
0
0
0
0
0
0
0
0
0
0
0
0
0
0
0
0
0
0
0
0
0
0
0
0
0
0
0
0
0
0
0
0
0
0
0
0
0
0
0
0
0
0
0
0
0
0
0
0
0
0
0
0
0
0
0
0
0
0
0
0
0
0
0
0
0
0
0
0
0
0
0
0
0
0
0
0
0
0
0
0
0
0
0
0
0
0
0
0
0
0
0
0
0
0
0
0
0
0
0
0
0
0
0
0
0
0
0
0
0
0
0
0
0
0
0
0
0
0
0
0
0
0
0
0
0
0
0
0
0
0
0
0
0
0
0</DataArray>
                <DataArray type="UInt64" Name="region" format="ascii">
0
0
0
0
0
0
0
0
0
0
0
0
0
0
0
0
0
0
0
0
0
0
0
0
0
0
0
0
0
0
0
0
0
0
0
0
0
0
0
0
0
0
0
0
0
0
0
0
0
0
0
0
0
0
0
0
0
0
0
0
0
0
0
0
0
0
0
0
0
0
0
0
0
0
0
0
0
0
0
0
0
0
0
0
0
0
0
0
0
0
0
0
0
0
0
0
0
0
0
0
0
0
0
0
0
0
0
0
0
0
0
0
0
0
0
0
0
0
0
0
0
0
0
0
0
0
0
0
0
0
0
0
0
0
0
0
0
0
0
0
0
0
0
0
0
0
0
0
0
0
0
0
0
0
0
0
0
0
0
0
0
0
0
0
0
0
0
0
0
0
0
0
0
0
0
0
0
0
0
0
0
0
0
0
0
0
0
0
0
0
0
0
0
0
0
0
0
0
0
0
0
0
0
0
0
0
0
0
0
0
0
0
0
0
0
0
0
0
0
0
0
0
0
0
0
0
0
0
0
0
0
0
0
0
0
1
1
1
1
1
1
1
1
1
1
1
1
1
1
1
1
1
1
1
1
1
1
1
1
1
1
1
1
1
1
1
1
1
1
1
1
1
1
1
1
1
1
1
1
1
1
1
1
1
1
1
1
1
1
1
1
1
1
1
1
1
1
1
1
1
1
1
1
1
1
1
1
1
1
1
1
1
1
1
1
1
1
1
1
1
1
1
1
1
1
1
1
1
1
1
1
1
1
1
1
1
1
1
1
1
1
1
1
1
1
1
1
1
1
1
1
1
1
1
1
1
1
1
1
1
1
1
1
1
1
1
1
1
1
1
1
1
1
1
1
1
1
1
1
1
1
1
1
1
1
1
1
1
1
1
1
1
1
1
1
1
1
1
1
1
1
1
1
1
1
1
1
1
1
1
1
1
1
1
1
1
1
1
1
1
1
1
1
1
1
1
1
1
1
1
1
1
1
1
1
1
1
1
1
1
1
1
1
1
1
1
1
1
1
1
1
1
1
1
1
1
1
1
1
1
1
1
1
1
1
1
1
1
1
1
1
1
1
1
1
1
1
1
1
1
1
1
1
1
1
1
1
1
1
1
1
1
1
1
1
1
1
1
1
1
1
1
1
1
1
1
1
1
1
1
1
1
1
1
1
1
1
1
1
1
1
1
1
1
1
1
1
1
1
1
1
1
1
1
1
1
1
1
1
1
1
1
1
1
1
1
1
1
1
1
1
1
1
1
1
1
1
1
1
1
1
1
1
1
1
1
1
1
1
1
1
1
1
1
1
1
1
1
1
1
1
1
1
1
1
1
1
1
1
1
1
1
1
1
1
1
1
1
1
1
1
1
1
1
1
1
1
1
1
1
1
1
1
1
1
1
1
1
1
1
1
1
1
1
1
1
1
1
1
1
1
1
1
1
1
1
1
1
1
1
1
1
1
1
1
1
1
1
1
1
1
1
1
1
1
1
1
1
1
1
1
1
1
1
1
1
1
1
1
1
1
1
1
1
1
1
1
1
1
1
1
1
1
1
1
1
1
1
1
1
1
1
1
1
1
1
1
1
1
1
1
1
1
1
1
1
1
1
1
1
1
1
1
2
2
2
2
2
2
2
2
2
2
2
2
2
2
2
2
2
2
2
2
2
2
2
2
2
2
2
2
2
2
2
2
2
2
2
2
2
2
2
2
2
2
2
2
2
2
2
2
2
2
2
2
2
2
2
2
2
2
2
2
2
2
2
2
2
2
2
2
2
2
2
2
2
2
2
2
2
2
2
2
2
2
2
2
2
2
2
2
2
2
2
2
2
2
2
2
2
2
2
2
2
2
2
2
2
2
2
2
2
2
2
2
2
2
2
2
2
2
2
2
2
2
2
2
2
2
2
2
2
2
2
2
2
2
2
2
2
2
2
2
2
2
2
2
2
2
2
2
2
2
2
2
2
2
2
2
2
2
2
2
2
2
2
2
2
2
2
2
2
2
2
2
2
2
2
2
2
2
2
2
2
2
2
2
2
2
2
2
2
2
2
2
2
2
2
2
2
2
2
2
2
2
2
2
2
2
2
3
3
3
3
3
3
3
3
3
3
3
3
3
3
3
3
3
3
3
3
3
3
3
3
3
3
3
3
3
3
3
3
3
3
3
3
3
3
3
3
3
3
3
3
3
3
3
3
3
3
3
3
3
3
3
3
3
3
3
3
3
3
3
3
3
3
3
3
3
3
3
3
3
3
3
3
3
3
3
3
3
3
3
3
3
3
3
3
3
3
3
3
3
3
3
3
3
3
3
3
3
3
3
3
3
3
3
3
3
3
3
3
3
3
3
3
3
3
3
3
3
3
3
3
3
3
3
3
3
3
3
3
3
3
3
3
3
3
3
3
3
3
3
3
3
3
3
3
3
3
3
3
3
3
3
3
3
3
3
3
3
3
3
3
3
3
3
3
3
3
3
3
3
3
3
3
3
3
3
3
3
3
3
3
3
3
3
3
3
3
3
3
3
3
3
3
3
3
3
3
3
3
3
3
3
3
3
3
3
3
3
3
3
3
3
3
3
3
3
3
3
3
3
3
3
3
3
3
3
3
3
3
3
3
3
3
3
3
3
3
3
3
3
3
3
3
3
3
3
3
3
3
3
3
3
3
3
3
3
3
3
3
3
3
3
3
3
3
3
3
3
3
3
3
3
3
3
3
3
3
3
3
3
3
3
3
3
3
3
3
3
3
3
3
3
3
3
3
3
3
3
3
3
3
3
3
3
3
3
3
3
3
3
3
3
3
3
3
3
3
3
3
3
3
3
3
3
3
3
3
3
3
3
3
3
3
3
3
3
3
3
3
3
3
3
3
3
3
3
3
3
3
3
3
3
3
3
3
3
3
3
3
3
3
3
3
3
3
3
3
3
3
3
3
3
3
3
3
3
3
3
3
3
3
3
3
3
3
3
3
3
3
3
3
3
3
3
3
3
3
3
3
3
7
7
7
7
7
7
7
7
7
7
7
7
7
7
7
7
7
7
7
7
7
7
7
7
7
7
7
7
7
7
7
7
7
7
7
7
8
8
8
8
8
8
8
8
8
8
8
8
8
8
8
8
8
8
8
8
8
8
8
8
8
8
8
8
8
8
8
8
8
8
8
8
8
8
8
8
8
8
8
9
9
9
9
9
9
9
9
9
9
9
9
9
9
9
9
9
10
10
10
10
10
10
10
10
10
10
10
10
10
10
10
11
11
11
11
11
11
11
11
11
11
11
11
11
11
11
11
11
11
11
11
11
11
11
11
11
11
11
11
11
11
11
11
11
11
11
11
11
11
11
11
11
11
11
11
20
20
20
20
20
20
20
20
20
20
20
20
20
20
20
20
20
20
20
20
20
20
20
20
20
20
20
20
20
20
20
20
20
20
20
20
20
20
20
20
20
20
20
20
20
20
20
20
20
20
20
20
20
20
20
20
20
20
20
20
20
20
20
20
20
20
20
20
20
20
20
20
20
20
20
20
20
20
20</DataArray>
                <DataArray type="UInt64" Name="original_index" format="ascii">
0
10
37
61
84
87
90
107
111
115
117
124
136
147
156
162
169
171
185
193
195
196
200
214
227
231
242
243
246
247
311
319
326
327
330
535
550
616
803
807
838
841
842
846
877
879
886
919
938
940
943
954
993
1027
1028
1037
1038
1041
1042
1046
1053
1055
1062
1065
1066
1068
1073
1074
1077
1082
1083
1084
1112
1115
1128
1137
1170
1173
1187
1227
1243
1246
1263
1272
1273
1286
1289
1292
1295
1300
1301
1302
1305
1309
1310
1311
1312
1313
1316
1321
1322
1323
1324
1325
1327
1334
1339
1340
1343
1344
1345
1347
1348
1349
1350
1351
1352
1353
1354
1355
1356
1357
1358
1359
1360
1361
1362
1363
1364
1365
1366
1367
1368
1369
1370
1371
1372
1373
1374
1375
1376
1377
1378
1379
1380
1381
1383
1384
1385
1386
1387
1388
1389
1390
1391
1393
1394
1395
1396
1397
1399
1400
1401
1402
1403
1404
1405
1406
1408
1409
1411
1412
1413
1414
1416
1417
1418
1419
1420
1421
1422
1423
1426
1428
1429
1431
1432
1433
1434
1435
1437
1439
1442
1444
1446
1447
1449
1450
1451
1453
1454
1460
1467
1495
1496
1498
1500
1501
1528
1529
1530
1531
1533
1534
1834
1835
1879
1917
1929
1938
1951
1954
1962
1974
1975
1977
1978
1986
1993
1999
2009
2010
2011
2012
2022
2083
2084
2087
2092
2106
2115
2119
2124
2142
2167
2169
2171
2172
2182
2200
2209
2212
2233
2240
2246
2255
2264
2290
2292
2293
2294
2300
2306
2311
2313
2314
2315
2332
2371
2376
2398
2401
2410
2418
2439
2445
2456
2459
2464
2481
2504
2514
2517
2522
2523
2535
2541
2547
2550
2554
2563
2564
2640
2642
2644
2681
2685
2698
2704
2716
2718
2725
2743
2749
2772
2775
2792
2815
2818
2823
2837
2851
2875
2876
2881
2885
2901
2921
2923
2936
2958
2959
2977
2978
2993
3001
3019
3025
3029
3030
3055
3066
3095
3099
3121
3127
3141
3157
3160
3181
3193
3195
3233
3235
3246
3260
3263
3282
3314
3326
3332
3343
3354
3380
3402
3406
3409
3424
3425
3434
3440
3444
3462
3475
3495
3496
3528
3537
3541
3549
3564
3580
3595
3605
3625
3630
3631
3632
3638
3641
3643
3645
3658
3665
3672
3689
3694
3701
3729
3735
3755
3757
3764
3774
3775
3776
3777
3787
3797
3798
3802
3810
3812
3821
3825
3830
3831
3843
3845
3870
3876
3889
3894
3907
3921
3926
3935
3936
3940
3988
4006
4014
4031
4051
4066
4088
4090
4091
4098
4102
4107
4131
4154
4162
4174
4176
4182
4193
4215
4221
4225
4239
4244
4247
4291
4292
4294
4296
4299
4303
4305
4308
4309
4314
4324
4365
4384
4388
4391
4394
4405
4417
4424
4425
4427
4428
4429
4437
4438
4442
4443
4444
4445
4454
4456
4459
4463
4468
4473
4475
4476
4487
4490
4492
4493
4498
4502
4503
4506
4509
4519
4523
4533
4536
4538
4551
4558
4581
4583
4595
4597
4598
4600
4607
4611
4612
4613
4614
4619
4623
4641
4652
4666
4674
4686
4689
4692
4700
4702
4711
4726
4731
4738
4744
4757
4775
4788
4809
4815
4829
4832
4836
4848
4850
4866
4870
4877
4879
4893
4894
4909
4913
4923
4928
4935
4936
4957
4975
4985
5004
5006
5007
5039
5075
5085
5118
5123
5124
5126
5128
5150
5166
5172
5182
5188
5189
5198
5203
5219
5222
5228
5236
5247
5254
5261
5267
5284
5300
5341
5342
5343
5365
5368
5370
5372
5376
5383
5384
5414
5440
5447
5450
5457
5466
5483
5488
5501
5504
5511
5537
5545
5553
5578
5601
5613
5617
5620
5623
5625
5626
5628
5638
5642
5647
5649
5652
5673
5684
5685
5690
5694
5722
5723
5727
5729
5734
5737
5741
5748
5763
5784
5789
5799
5800
5807
5814
5815
5832
5858
5860
5870
5882
5884
5886
5892
5919
5920
5938
5943
5948
5953
5957
5958
5976
5984
5994
6006
6014
6019
6033
6047
6048
6065
6111
6112
6121
6135
6143
6151
6161
6169
6183
6184
6185
6192
6202
6221
6222
6239
6242
6252
6259
6265
6269
6270
6277
6279
6280
6281
6282
6283
6285
6286
6287
6288
6289
6290
6356
6357
6358
6359
6360
6361
6362
6363
6391
6392
6393
6394
6395
6396
6397
6398
6407
6458
6478
6515
6524
6526
6531
6549
6570
6574
6580
6588
6594
6606
6609
6654
6655
6656
6668
6670
6673
6685
6692
6698
6703
6707
6712
6719
6722
6727
6729
6733
6745
6837
6868
7200
7223
7284
7338
7358
7419
7467
7492
7494
7495
7500
7502
7514
7520
7521
7522
7524
7532
7538
7553
7554
7558
7559
7561
7564
7565
7566
7567
7568
7569
7570
7578
7588
7589
7629
7696
7698
7699
7700
7701
7709
7713
7714
7717
7719
7721
7724
7730
7732
7734
7735
7736
7737
7738
7739
7740
7741
7742
7743
7744
7745
7746
7747
7748
7750
7753
7755
7756
7757
7758
7759
7760
7761
7765
7767
7769
7770
7772
7773
7774
7775
7777
7778
7779
7781
7782
7783
7784
7785
7786
7787
7788
7790
7791
7792
7793
7794
7795
7796
7797
7798
7799
7801
7802
7804
7805
7806
7809
7810
7811
7812
7815
7819
7820
7823
7860
7861
7862
7869
7870
7879
7887
7888
7891
7895
7896
7898
7899
7930
7994
8035
8123
8126
8131
8184
8185
8274
8312
8317
8344
8345
8348
8349
8351
8355
8356
8357
8358
8362
8363
8372
8374
8386
8387
8388
8389
8390
8391
8392
8393
8395
8396
8397
8399
8401
8406
8407
8411
8412
8413
8417
8419
8464
8468
8473
8480
8486
8487
8503
8506
8523
8524
8538
8541
8549
8559
8592
8604
8624
8631
8636
8649
8667
8692
8694
8700
8701
8711
8712
8724
8745
8760
8788
8817
8824
8840
8853
8857
8878
8943
8954
8963
9013
9022
9039
9066
9068
9070
9091
9125
9149
9156
9160
9177
9212
9248
9273
9288
9295
9321
9359
9388
9443
9455
9471
9475
9481
9494
9523
9538
9556
9558
9638
9652
9664
9694
9695
9707
9718
9736
9747
9750
9759
9775
9783
9784
9797
9799
9803
9836
9843
9867
9870
9872
9885
9901
9909
9917
9930
9952
9958
9960
9962
9975
9980
10033
10035
10050
10062
10071
10165
10177
10199
10206
10213
10218
10219
10235
10280
10288
10318
10322
10343
10368
10370
10385
10399
10426
10439
10444
10456
10462
10473
10488
10514
10516
10528
10535
10549
10563
10583
10587
10594
10618
10622
10651
10652
10654
10662
10663
10671
10674
10689
10690
10693
10695
10699
10702
10708
10711
10715
10736
10754
10763
10766
10769
10780
10799
10811
10848
10870
10888
10892
10923
10940
10945
10953
10975
10991
11005
11011
11012
11014
11019
11024
11027
11065
11077
11080
11081
11084
11117
11127
11137
11142
11168
11189
11193
11211
11216
11223
11229
11232
11233
11240
11247
11256
11257
11259
11260
11268
11276
11278
11291
11292
11294
11304
11307
11317
11325
11336
11343
11353
11360
11366
11375
11396
11400
11402
11407
11454
11455
11457
11458
11462
11469
11470
11503
11512
11542
11553
11591
11610
11612
11617
11623
11625
11627
11636
11645
11669
11737
11747
11768
11776
11786
11815
11816
11862
11872
11887
11900
11916
11942
11946
11973
11996
12002
12030
12050
12053
12062
12063
12067
12068
12069
12080
12091
12094
12095
12111
12136
12142
12144
12146
12149
12162
12168
12178
12197
12199
12208
12261
12278
12280
12293
12294
12304
12311
12330
12338
12341
12343
12354
12357
12359
12377
12395
12435
12437
12441
12462
12471
12488
12524
12537
12539
12550
12557
12574
12575
12597
12598
12604
12609
12616
12628
12629
12636
12650
12671
12672
12693
12698
12706
12713
12762
12771
12779
12780
12795
12813
12817
12824
12825
12826
12836
12838
12846
12848
12853
12867
12875
12888
12899
12921
12939
12942
12946
12963
12967
12968
12979
12997
13007
13018
13024
13028
13046
13054
13060
13105
13109
13128
13134
13140
13149
13168
13179
13211
13216
13224
13228
13230
13232
13266
13267
13268
13269
13285
13286
13305
13306
13307
13308
13309
13333
13334
13356
13359
13360
13361
13362
13363
13447
2460
2462
2463
2464
2465
2466
2467
2468
2469
2470
2471
2472
2473
2474
2475
2518
2668
2669
2671
2672
2673
2674
2675
2682
2683
2684
2685
2686
2687
2688
2689
2690
2691
2692
2698
2699
3107
3109
3110
3111
3112
3113
3114
3115
3116
3118
3119
3120
3121
3122
3123
3124
3127
3128
3129
3130
3131
3132
3133
3134
3152
3155
3156
3157
3158
3159
3160
3161
3162
3163
3164
3165
3166
3167
3168
3169
3170
3203
3205
3224
3225
3226
3227
3228
3229
3230
3231
3232
3233
3234
3235
3236
3237
3238
3239
3240
3292
3293
3294
3295
3296
3297
3298
3299
3300
3301
3302
3303
3304
3305
3306
3327
3329
3331
3332
3334
3335
3336
3337
3340
3341
3343
3344
3345
3348
3349
3354
3356
3357
3358
3361
3362
3363
3364
3367
3380
3383
3385
3386
3389
3390
3392
3394
3399
3417
3418
3419
3420
3421
3422
3423
3424
3425
3426
3427
3929
3930
3931
3932
4079
4080
4083
4091
4092
4229
4230
4231
4232
4233
4234
4236
4403
4404
4405
4406
4407
4408
4409
4410
4411
4412
4413
4414
4415
4417
4418
4419
4421
4428
4429
4430
4431
4432
4433
4434
4435
4436
4437
4438
4443
4444
4445
4446
4447
4448
4449
4450
4451
4452
4453
4454
4455
4456
4457
4458
4459
4460
4461
4462
4463
4464
4465
4466
4467
4468
4469
4470
4471
4472
4473
4474
4475
4477
4478</DataArray>
            </CellData>
            <Cells>
                <DataArray type="UInt64" Name="connectivity" format="ascii">
0 1 2 3 
4 5 6 7 
8 0 9 2 
10 11 12 13 
14 15 16 17 
18 10 19 4 
0 20 8 21 
22 23 13 24 
25 26 27 28 
29 30 31 21 
32 33 6 34 
18 10 4 35 
36 37 38 39 
26 40 25 41 
42 43 44 45 
30 46 17 47 
48 49 50 51 
52 43 45 28 
38 53 39 54 
55 56 57 45 
58 59 60 61 
62 0 8 63 
42 52 43 45 
64 14 30 17 
65 66 67 68 
62 0 63 3 
62 69 63 70 
19 71 72 31 
63 0 2 3 
34 29 46 64 
69 62 63 73 
62 69 74 73 
53 23 75 54 
76 9 47 77 
58 78 61 79 
32 72 33 29 
1 0 2 77 
48 36 53 75 
32 29 30 31 
32 29 64 30 
80 49 51 12 
27 41 49 51 
65 67 61 79 
37 81 82 38 
67 66 36 82 
83 84 13 24 
19 72 32 31 
52 26 25 28 
71 85 86 70 
60 58 61 79 
84 22 13 24 
85 87 88 86 
20 62 8 70 
34 32 29 64 
46 64 30 17 
19 18 4 33 
83 18 19 72 
83 71 86 20 
67 37 81 82 
23 89 75 54 
45 43 68 28 
72 19 32 33 
67 60 61 79 
19 4 32 33 
83 71 20 72 
71 83 19 72 
43 65 45 68 
58 90 59 78 
66 43 27 28 
43 66 68 28 
26 91 40 41 
27 48 92 51 
37 67 36 82 
53 48 75 50 
82 36 53 92 
93 94 95 57 
93 55 94 57 
78 93 94 95 
96 52 97 42 
43 65 44 45 
35 4 33 7 
48 50 92 51 
97 52 25 42 
96 97 98 42 
26 91 99 40 
56 42 44 45 
67 66 82 68 
5 4 35 7 
9 30 47 21 
65 93 44 45 
53 36 39 75 
56 52 42 45 
18 19 72 33 
23 89 22 75 
84 83 71 85 
83 84 71 19 
71 86 20 70 
100 63 3 101 
66 36 82 92 
102 24 85 88 
43 25 27 28 
103 10 49 12 
89 23 104 54 
91 26 80 41 
37 60 67 81 
52 99 96 97 
99 26 40 25 
97 99 40 25 
25 26 41 27 
52 26 99 25 
52 99 97 25 
56 96 98 42 
56 52 96 42 
26 27 28 51 
93 95 65 44 
52 25 42 43 
65 93 45 68 
93 65 79 68 
36 48 53 92 
22 11 84 13 
93 55 57 45 
105 34 46 64 
67 82 79 68 
65 67 79 68 
48 27 49 51 
26 80 41 51 
103 10 12 35 
95 93 65 61 
66 65 43 68 
59 58 78 61 
36 38 53 39 
78 93 95 61 
41 80 49 51 
60 67 81 79 
36 37 82 38 
26 41 27 51 
82 36 38 53 
81 67 82 79 
58 106 78 79 
83 71 85 86 
10 84 18 19 
58 60 81 79 
106 93 78 79 
93 65 61 79 
78 93 61 79 
75 48 11 50 
89 39 75 54 
22 23 75 11 
11 10 84 13 
57 56 44 45 
52 25 43 28 
87 74 86 70 
80 103 41 49 
84 83 18 19 
103 5 4 35 
85 87 86 70 
44 93 57 45 
93 44 57 95 
11 48 49 50 
23 75 11 50 
28 27 92 51 
23 53 75 50 
66 82 68 92 
66 48 36 92 
66 68 28 92 
48 66 27 92 
10 11 49 12 
53 48 50 92 
27 66 28 92 
10 18 12 35 
49 11 50 12 
49 50 51 12 
80 103 49 12 
39 53 75 54 
18 10 12 13 
84 10 18 13 
83 84 18 13 
11 50 12 13 
22 23 11 13 
80 103 12 35 
10 103 4 35 
11 23 50 13 
83 84 24 85 
33 4 6 7 
22 102 24 85 
86 62 20 70 
4 18 35 33 
4 32 33 6 
87 74 88 86 
84 22 24 85 
62 0 20 8 
6 32 34 64 
24 85 88 86 
24 83 85 86 
24 102 104 88 
87 102 85 88 
30 29 47 21 
89 23 22 104 
22 23 24 104 
102 22 24 104 
102 89 22 104 
32 33 34 29 
29 46 64 30 
69 62 74 70 
15 105 46 64 
8 62 63 70 
32 72 29 31 
71 20 8 70 
15 46 16 17 
30 14 76 17 
74 62 86 70 
87 69 74 70 
20 71 8 31 
71 20 72 31 
9 47 77 21 
46 15 64 17 
63 2 100 3 
0 8 63 2 
0 8 9 21 
105 15 46 16 
9 30 76 47 
3 63 73 101 
76 30 17 47 
29 46 30 47 
64 15 14 17 
30 9 31 21 
0 9 77 21 
107 3 73 101 
8 20 31 21 
0 9 2 77 
9 8 31 21 
63 62 3 73 
72 29 31 21 
20 72 31 21 
63 69 73 101 
108 76 109 110 
111 112 113 114 
115 116 117 118 
119 120 121 122 
14 30 76 123 
124 125 126 127 
128 129 130 131 
32 64 132 109 
133 134 129 130 
75 135 89 136 
137 138 139 140 
41 103 141 142 
25 43 127 114 
143 144 145 146 
100 2 63 147 
148 149 150 132 
151 152 141 153 
135 154 136 155 
59 78 156 61 
71 19 130 157 
158 159 160 113 
30 76 123 109 
41 141 153 142 
161 156 160 162 
163 164 130 140 
67 37 36 165 
102 133 22 89 
39 166 135 155 
167 168 169 170 
128 171 172 120 
173 115 174 118 
157 175 150 140 
176 177 174 118 
129 85 130 131 
59 78 90 156 
123 150 132 109 
138 178 150 179 
95 44 57 111 
180 181 169 170 
31 8 175 131 
22 133 130 136 
138 137 144 163 
103 10 163 146 
59 156 162 61 
182 134 133 136 
130 120 122 140 
39 135 75 155 
183 178 149 150 
184 185 186 187 
65 126 113 188 
130 22 136 189 
5 190 141 179 
164 145 163 189 
149 191 150 123 
25 97 192 153 
181 138 183 150 
65 44 95 113 
154 182 193 136 
164 194 130 140 
2 9 8 108 
66 36 186 165 
32 4 157 132 
85 195 87 70 
61 65 113 188 
129 102 133 22 
43 27 25 127 
59 162 60 61 
125 196 126 186 
134 128 129 130 
197 198 165 188 
199 164 182 136 
200 201 202 192 
112 124 159 113 
150 157 132 109 
76 191 109 110 
25 153 127 142 
144 137 145 163 
71 8 31 131 