<?xml version="1.0" encoding="UTF-8"?>
<VTKFile type="UnstructuredGrid" version="0.1" byte_order="LittleEndian">
    <UnstructuredGrid>
        <Piece NumberOfPoints="364" NumberOfCells="1516">
            <PointData>
                <DataArray type="UInt64" Name="original_index" format="ascii" NumberOfComponents="1">
909
624
623
656
947
631
946
964
665
639
957
982
954
635
661
636
864
585
908
865
595
596
931
679
680
974
976
965
597
598
933
975
944
655
943
637
638
663
956
622
660
979
973
981
952
632
978
932
989
659
664
633
634
911
630
912
662
657
681
919
953
980
955
945
983
910
625
972
621
906
907
942
601
654
600
586
678
866
653
677
584
652
941
676
2317
2110
2391
2393
2159
2160
2217
2322
2172
2171
2381
2168
2163
2169
2218
2146
2228
2370
2424
2319
2356
2232
2337
2418
2184
2209
2357
2143
2313
2161
2254
2430
2147
2258
2134
2451
2135
2133
2233
2106
2290
2431
2162
2298
2366
2109
2141
2142
2111
2167
2283
2129
2093
2222
2144
2145
2170
2166
2266
2224
2256
2164
2131
2130
2368
2049
2226
2140
2139
2097
2096
2132
2113
2112
2094
2050
2095
2128
2098
2114
2092
2099
2100
1257
1222
1256
1264
1263
1288
1282
1231
1221
1258
1224
1283
1254
1259
1285
1284
1255
1281
1286
1223
1220
1179
1289
1290
1253
1219
1178
1177
1266
1225
1252
1260
1287
1261
1262
1291
1265
1233
1218
1227
1230
1226
1267
2536
2774
2834
2835
1604
1560
1603
2507
2537
2850
2871
1685
1661
2545
2628
1626
1658
1625
2646
2715
2769
2840
2693
2745
2792
2800
2527
1672
2724
2851
2824
2730
2486
2620
2722
1639
1670
2648
2861
1619
1636
2544
2832
1508
1558
1559
2775
1557
1507
2491
2661
2622
2516
2678
2844
2665
2771
2570
1638
1668
1669
2584
2671
2702
2734
1588
1543
2630
2652
1680
2700
2797
2487
1684
1660
2469
2869
1641
1642
2845
2863
1627
1659
2510
1682
1654
2732
1683
2518
2495
1600
2497
2647
1628
2617
2677
2669
1671
2683
1589
2735
2694
2748
2680
2596
2783
1681
1623
1656
2699
2849
1605
2505
2621
2634
1509
2520
2609
2747
1606
2517
1637
1653
2868
1640
2843
1601
2659
2534
2718
2697
1657
1545
1587
2825
1624
1591
1629
1590
2780
1602
1546
2553
2664
2500
2504
1686
2674
1544
1620
1673
1579
1585
1586</DataArray>
            </PointData>
            <Points>
                <DataArray type="Float64" Name="Points" format="ascii" NumberOfComponents="3">
-4.43148 -574.596 1581.63
-713.229 -574.595 1687.04
-3.9121 -574.568 1780.86
-358.86 27.0934 1735.96
-1773.17 27.1585 1315.55
-1754.73 756.551 1510.23
-1066.84 26.9883 1430.46
-1754.74 756.546 1310.26
2851.44 1605.85 1936.66
2493.26 2207.24 1942.91
2492.97 2207.01 1740.48
2135.04 1605.45 1743.76
352.857 2207.89 1609.72
-357.245 2207.91 1723.95
-1.49795 1606.14 1760.23
352.895 2207.83 1809.04
1064.65 -1175.47 1673.7
353.025 -1176.05 1809.44
706.735 -574.121 1657.32
352.627 -1176.04 1609.39
-2346.07 -330.264 1420.01
-2345.86 394.075 1414.39
-2345.82 394.083 1214.13
705.843 629.404 1861.97
-3.72427 629.034 1775.28
705.631 629.3 1660.99
-711.81 628.673 1474.35
-1755.45 1480.21 1312.3
-2346.26 1118.09 1413.36
-2348.11 1841.64 1422.13
-2348.1 1841.61 1221.99
-4.11957 628.967 1575.1
349.91 27.3597 1627.37
350.36 27.4044 1826.91
1062.04 27.8057 1695.32
1064.24 2207.44 1878.96
1777.67 2207.17 1927.63
1420.15 1605.57 1911.78
1777.52 2207.06 1727.94
707.107 -574.102 1857.27
-710.329 1606.28 1665.88
-1.64562 1606.24 1561.32
1418.87 629.35 1723.82
1420.08 1605.46 1710.54
-1066.2 2207.97 1426.39
-1755.32 1480.24 1511.51
-710.58 1606.4 1467
-2346.27 1118.07 1213.39
-1162.5 1118.71 1400.2
-1162.4 1118.72 1599.54
2135.23 1605.75 1948.72
-1757.06 2203.14 1522.02
-1066.13 2207.83 1626.52
-1421.09 -574.541 1378.78
-1755.56 32.5179 1518.44
-2126.92 -574.328 1260.08
708.255 1605.74 1843.87
-1066.45 27.1064 1630.54
-711.331 628.742 1674.45
-713.116 2809.55 1484.92
-357.252 2208.01 1523.76
708.153 1605.82 1645.45
1064.26 2207.5 1679.73
-359.294 27.0465 1535.81
2850.98 1605.51 1734.74
-713.6 -574.691 1487.03
-1420.78 -574.372 1578.88
2135.38 629.224 1749.4
1420.3 -573.438 1910.67
2135.2 -573.381 1736.39
1420.04 -573.529 1710.64
1777.03 28.0466 1736.31
-713.106 2809.45 1684.99
1062.28 27.8843 1895.57
-1421 2809.34 1579.13
-357.526 -1176.21 1726.23
1419.44 629.287 1922.91
-357.854 -1176.28 1526.22
1777.57 27.9837 1936.15
2136 629.142 1947.88
1065 -1175.46 1874.12
2494.39 27.8649 1942.86
2493.61 27.8775 1742.01
2852.66 629.173 1934.23
-79.3336 -168.068 2367.57
-701.438 -560.364 3247.13
-1144.7 -99.9473 2386.62
-427.241 -805.538 2584.45
2829.08 1586.31 3247.13
2122.97 1586.31 3247.13
2846.71 1981.34 2639.81
2476.03 1319.09 2630.67
2829.08 648.527 3247.13
2122.97 648.527 3247.13
2506.63 482.733 2586.98
4.66476 648.527 3247.13
4.66476 1586.31 3247.13
710.768 648.527 3247.13
271.13 1291.49 2498.5
1769.92 44.0812 3247.13
2129.88 -169.426 2587.74
1359.62 -185.48 2573.67
1771.97 427.649 2511.21
-80.4069 2376.59 2419.56
-794.704 2006.37 2279.39
-1054.49 2596.08 2633.31
-1522.88 1914.95 2323.07
-2056.02 2578.82 2231.16
2122.97 1991.64 2603.79
266.413 444.042 2512.27
1063.82 778.317 2582.3
-348.387 44.0812 3247.13
-548.374 387.846 2367.49
1416.87 1586.31 3247.13
1744.59 1124.67 2573.46
1000.62 1536.73 2544.16
2476.03 44.0812 3247.13
675.562 2410.43 2547.33
-1054.49 2190.75 3247.13
-1114.85 1533.71 2710.35
-1760.59 2190.75 3247.13
-348.387 2190.75 3247.13
-2743.46 1562.65 2278.57
-2294.07 1117.42 3247.13
-2275.23 712.868 2329.45
-2085.44 1449.18 2611.97
710.768 1586.31 3247.13
-1621.43 1048.21 2186.61
390.681 -778.734 2555.13
-1407.54 -560.364 3247.13
-1694.66 32.8001 3247.13
-1054.49 44.0812 3247.13
4.66476 -560.364 3247.13
-701.438 648.527 3247.13
-1206.49 624.169 2643.04
2476.03 2190.75 3247.13
2829.08 2795.2 3247.13
2173.29 3171.14 2598.59
357.716 44.0812 3247.13
1063.82 44.0812 3247.13
1416.87 648.527 3247.13
-1095.26 1117.42 3247.13
-634.113 1129.93 2450.21
1416.87 -975.109 2578.63
-1875.15 -345.627 2388.13
-701.438 1586.31 3247.13
1063.82 2190.75 3247.13
1769.92 2190.75 3247.13
1439.61 2403.15 2590.28
3182.13 3399.65 3247.13
3248.09 2634.31 2530.84
-1694.66 755.879 3247.13
-1694.66 1478.96 3247.13
4.66476 2795.2 3247.13
710.768 2795.2 3247.13
357.716 2190.75 3247.13
1416.87 -560.364 3247.13
710.768 -560.364 3247.13
2122.97 2795.2 3247.13
2476.03 3399.65 3247.13
1416.87 2795.2 3247.13
3182.13 2190.75 3247.13
-701.438 2795.2 3247.13
2122.97 -560.364 3247.13
3535.18 2795.2 3247.13
-1407.54 2795.2 3247.13
-2113.64 2795.2 3247.13
-1066.87 26.9955 630.452
-713.626 -574.685 687.028
-359.322 27.0538 735.808
352.824 2207.88 809.714
-357.281 2208.01 723.757
-1.67634 1606.23 761.319
1418.88 629.331 923.823
-3.54273 2809.57 778.45
-4.4622 -574.59 781.628
-1773.19 27.1658 515.543
-2126.94 -574.322 460.075
705.643 629.28 860.992
1062.05 27.7852 895.317
-1754.74 756.546 510.263
-711.837 628.681 674.343
-4.14831 628.974 775.091
349.879 27.3661 827.363
2135.39 629.205 949.397
-1162.5 1118.71 600.195
-1421.12 -574.535 578.78
706.702 -574.115 857.316
352.595 -1176.04 809.382
708.118 1605.81 845.446
1420.11 1605.5 910.547
1777.04 28.0261 936.307
1420.04 -573.551 910.641
1064.62 -1175.47 873.694
1777.96 -1175.09 917.781
1777.56 2207.1 927.946
-2345.82 394.083 414.131
2493.61 27.8569 942.013
-1755.45 1480.21 512.296
-710.607 1606.39 666.999
-1757.05 2203.1 521.958
-1066.23 2207.96 626.389
2135.04 1605.47 943.753
1064.23 2207.49 879.724
1420.68 2809.08 911.755
2135.21 -573.402 936.394
-2348.1 1841.61 421.99
-713.143 2809.55 684.915
-2346.27 1118.07 413.394
2492.97 2207.03 940.482
357.716 2994.32 -1052.94
4.66476 2206.95 -1198.99
-178.614 2530.03 -566.085
-403.841 3026.71 -1244.26
710.768 2795.2 -1837.56
357.716 3399.65 -1837.56
4.66476 2795.2 -1837.56
-1054.49 -361.249 -626.161
-109.996 -821.228 -288.686
-1039.35 -768.321 -1252.44
-409.598 -449.535 -1202.54
2122.97 648.527 -1837.56
2476.03 44.0812 -1837.56
2476.03 728.65 -861.449
1769.92 450.192 -1138.39
710.768 -560.364 -1837.56
357.716 44.0812 -1837.56
4.66476 -560.364 -1837.56
229.595 -709.189 -1045.33
-1190.71 626.897 42.2917
-700.525 -222.263 22.7287
-614.201 692.434 -458.171
710.768 243.197 -1223.61
357.716 903.417 -1228.51
-63.2124 82.3076 -889.707
985.375 559.554 -582.466
2122.97 1991.64 -1200.79
2122.97 1586.31 -1837.56
2476.03 1352.93 -1241.62
1769.92 1382.05 -1260.15
2021.6 1113.48 285.435
1693.34 1870.88 202.443
492.296 1098.88 -353.231
39.7116 2057.19 -49.0724
-272.393 1112.58 83.8362
357.716 2190.75 -1837.56
710.768 1586.31 -1837.56
710.768 2389.87 -1238.12
531.451 1700.97 -876.31
-2294.07 1840.5 -1837.56
-1760.59 2190.75 -1837.56
-2420.45 2337.14 -746.471
-1407.54 2115.27 -1226.07
-701.438 4004.09 -1837.56
-1054.49 3399.65 -1837.56
-348.387 3399.65 -1837.56
-1029.84 3790.58 -1173.76
-1760.59 3399.65 -1837.56
-1407.54 4004.09 -1837.56
2145.49 -168.187 -448.783
1661.95 421.949 -89.648
1559.5 -721.64 -446.409
2041.1 -1411.75 -630.912
2122.97 -988.941 -1221.85
2688.99 -609.931 -304.781
44.6314 -188.87 119.127
707.951 -1014.42 146.416
1122.13 994.929 212.564
-348.387 2190.75 -1837.56
-701.438 1586.31 -1837.56
4.66476 1586.31 -1837.56
-348.387 1732.51 -771.274
-1339.3 844.362 -653.814
-1335.33 1344.1 -94.2257
-1326.21 1412.17 -1168.66
357.716 -1164.81 -1837.56
4.66476 -1769.26 -1837.56
710.768 -1363.93 -1245.76
-348.387 -1570.14 -1164.21
-1095.26 1117.42 -1837.56
-619.21 1117.42 -1198.88
2485.1 1801.03 312.87
710.768 -155.034 -605.025
1416.87 648.527 -1837.56
1769.92 44.0812 -1837.56
710.768 2389.87 -514.5
972.753 1718.25 -140.109
1769.92 2190.75 -1837.56
2476.03 2190.75 -1837.56
-1582.94 1786.87 -607.691
-2057.53 1498.64 -144.448
1416.87 -560.364 -1837.56
1063.82 44.0812 -1837.56
1063.82 -759.48 -1089.17
4.66476 648.527 -1837.56
-1694.66 755.879 -1837.56
-858.428 334.893 -1090.34
710.768 648.527 -1837.56
625.402 312.908 87.1497
1769.92 1535.36 -524.23
-2113.64 2795.2 -1837.56
1869.69 2582.51 -127.666
769.373 2413.47 227.574
2122.97 -560.364 -1837.56
1763.94 -357.754 -1135.97
2566.91 -308.163 -1119.82
-471.374 3159.78 -328.9
1416.87 1586.31 -1837.56
1063.82 1117.42 -1101.3
1063.82 -1164.81 -1837.56
1416.87 -1348.59 -1254.07
-1906.69 358.939 -1074.1
-2220.89 1247.31 -802.516
4.66476 3598.76 -1237.7
1457.07 -965.879 314.876
-2431.9 755.4 -200.587
-701.438 648.527 -1837.56
-1407.54 -560.364 -1837.56
-1054.49 44.0812 -1837.56
-1507.64 -242.746 -1187.08
2544.05 1402.33 -457.841
1416.87 2795.2 -1837.56
1416.87 2187.11 -1019.19
1769.92 2825.77 -1179.74
-701.438 2389.87 -1173.7
4.66476 4004.09 -1837.56
-1234.44 2418.97 -607.95
-824.921 1893.84 -106.862
-501.05 2489.44 91.8904
2122.97 2795.2 -1837.56
1119.78 -364.846 127.211
-1054.49 2190.75 -1837.56
-1694.66 1478.96 -1837.56
164.359 2758.54 48.9367
1063.82 2190.75 -1837.56
2482.58 2200.54 -585.434
-1407.54 2795.2 -1837.56
-1827.04 3033.13 -983.005
2094.86 -190.158 296.31
-1104.64 3023.61 -1189.1
-1919.2 -213.777 -357.53
-348.387 44.0812 -1837.56
1416.87 -1769.26 -1837.56
-348.387 -1164.81 -1837.56
-1205.62 -904.892 -40.1659
-701.438 -560.364 -1837.56
2476.03 -1164.81 -1837.56
2829.08 -560.364 -1837.56
1769.92 -1164.81 -1837.56
2482.5 -769.849 360.838
-701.438 2795.2 -1837.56
2122.97 -1769.26 -1837.56
-1890.36 2472.98 -194.577
1029.65 3014.28 -1252.67
2816.4 2414.24 42.6743
2474.1 433.533 136.932
2829.08 648.527 -1837.56
1074.19 -1492.54 -332.32
710.768 -1769.26 -1837.56
-2294.07 1117.42 -1837.56
2829.08 1586.31 -1837.56
-2893.48 2202.04 -1837.56
-1760.59 -1164.81 -1837.56
-1054.49 -1164.81 -1837.56</DataArray>
            </Points>
            <CellData>
                <DataArray type="UInt64" Name="partition" format="ascii">
9
9
9
9
9
9
9
9
9
9
9
9
9
9
9
9
9
9
9
9
9
9
9
9
9
9
9
9
9
9
9
9
9
9
9
9
9
9
9
9
9
9
9
9
9
9
9
9
9
9
9
9
9
9
9
9
9
9
9
9
9
9
9
9
9
9
9
9
9
9
9
9
9
9
9
9
9
9
9
9
9
9
9
9
9
9
9
9
9
9
9
9
9
9
9
9
9
9
9
9
9
9
9
9
9
9
9
9
9
9
9
9
9
9
9
9
9
9
9
9
9
9
9
9
9
9
9
9
9
9
9
9
9
9
9
9
9
9
9
9
9
9
9
9
9
9
9
9
9
9
9
9
9
9
9
9
9
9
9
9
9
9
9
9
9
9
9
9
9
9
9
9
9
9
9
9
9
9
9
9
9
9
9
9
9
9
9
9
9
9
9
9
9
9
9
9
9
9
9
9
9
9
9
9
9
9
9
9
9
9
9
9
9
9
9
9
9
9
9
9
9
9
9
9
9
9
9
9
9
9
9
9
9
9
9
9
9
9
9
9
9
9
9
9
9
9
9
9
9
9
9
9
9
9
9
9
9
9
9
9
9
9
9
9
9
9
9
9
9
9
9
9
9
9
9
9
9
9
9
9
9
9
9
9
9
9
9
9
9
9
9
9
9
9
9
9
9
9
9
9
9
9
9
9
9
9
9
9
9
9
9
9
9
9
9
9
9
9
9
9
9
9
9
9
9
9
9
9
9
9
9
9
9
9
9
9
9
9
9
9
9
9
9
9
9
9
9
9
9
9
9
9
9
9
9
9
9
9
9
9
9
9
9
9
9
9
9
9
9
9
9
9
9
9
9
9
9
9
9
9
9
9
9
9
9
9
9
9
9
9
9
9
9
9
9
9
9
9
9
9
9
9
9
9
9
9
9
9
9
9
9
9
9
9
9
9
9
9
9
9
9
9
9
9
9
9
9
9
9
9
9
9
9
9
9
9
9
9
9
9
9
9
9
9
9
9
9
9
9
9
9
9
9
9
9
9
9
9
9
9
9
9
9
9
9
9
9
9
9
9
9
9
9
9
9
9
9
9
9
9
9
9
9
9
9
9
9
9
9
9
9
9
9
9
9
9
9
9
9
9
9
9
9
9
9
9
9
9
9
9
9
9
9
9
9
9
9
9
9
9
9
9
9
9
9
9
9
9
9
9
9
9
9
9
9
9
9
9
9
9
9
9
9
9
9
9
9
9
9
9
9
9
9
9
9
9
9
9
9
9
9
9
9
9
9
9
9
9
9
9
9
9
9
9
9
9
9
9
9
9
9
9
9
9
9
9
9
9
9
9
9
9
9
9
9
9
9
9
9
9
9
9
9
9
9
9
9
9
9
9
9
9
9
9
9
9
9
9
9
9
9
9
9
9
9
9
9
9
9
9
9
9
9
9
9
9
9
9
9
9
9
9
9
9
9
9
9
9
9
9
9
9
9
9
9
9
9
9
9
9
9
9
9
9
9
9
9
9
9
9
9
9
9
9
9
9
9
9
9
9
9
9
9
9
9
9
9
9
9
9
9
9
9
9
9
9
9
9
9
9
9
9
9
9
9
9
9
9
9
9
9
9
9
9
9
9
9
9
9
9
9
9
9
9
9
9
9
9
9
9
9
9
9
9
9
9
9
9
9
9
9
9
9
9
9
9
9
9
9
9
9
9
9
9
9
9
9
9
9
9
9
9
9
9
9
9
9
9
9
9
9
9
9
9
9
9
9
9
9
9
9
9
9
9
9
9
9
9
9
9
9
9
9
9
9
9
9
9
9
9
9
9
9
9
9
9
9
9
9
9
9
9
9
9
9
9
9
9
9
9
9
9
9
9
9
9
9
9
9
9
9
9
9
9
9
9
9
9
9
9
9
9
9
9
9
9
9
9
9
9
9
9
9
9
9
9
9
9
9
9
9
9
9
9
9
9
9
9
9
9
9
9
9
9
9
9
9
9
9
9
9
9
9
9
9
9
9
9
9
9
9
9
9
9
9
9
9
9
9
9
9
9
9
9
9
9
9
9
9
9
9
9
9
9
9
9
9
9
9
9
9
9
9
9
9
9
9
9
9
9
9
9
9
9
9
9
9
9
9
9
9
9
9
9
9
9
9
9
9
9
9
9
9
9
9
9
9
9
9
9
9
9
9
9
9
9
9
9
9
9
9
9
9
9
9
9
9
9
9
9
9
9
9
9
9
9
9
9
9
9
9
9
9
9
9
9
9
9
9
9
9
9
9
9
9
9
9
9
9
9
9
9
9
9
9
9
9
9
9
9
9
9
9
9
9
9
9
9
9
9
9
9
9
9
9
9
9
9
9
9
9
9
9
9
9
9
9
9
9
9
9
9
9
9
9
9
9
9
9
9
9
9
9
9
9
9
9
9
9
9
9
9
9
9
9
9
9
9
9
9
9
9
9
9
9
9
9
9
9
9
9
9
9
9
9
9
9
9
9
9
9
9
9
9
9
9
9
9
9
9
9
9
9
9
9
9
9
9
9
9
9
9
9
9
9
9
9
9
9
9
9
9
9
9
9
9
9
9
9
9
9
9
9
9
9
9
9
9
9
9
9
9
9
9
9
9
9
9
9
9
9
9
9
9
9
9
9
9
9
9
9
9
9
9
9
9
9
9
9
9
9
9
9
9
9
9
9
9
9
9
9
9
9
9
9
9
9
9
9
9
9
9
9
9
9
9
9
9
9
9
9
9
9
9
9
9
9
9
9
9
9
9
9
9
9
9
9
9
9
9
9
9
9
9
9
9
9
9
9
9
9
9
9
9
9
9
9
9
9
9
9
9
9
9
9
9
9
9
9
9
9
9
9
9
9
9
9
9
9
9
9
9
9
9
9
9
9
9
9
9
9
9
9
9
9
9
9
9
9
9
9
9
9
9
9
9
9
9
9
9
9
9
9
9
9
9
9
9
9
9
9
9
9
9
9
9
9
9
9
9
9
9
9
9
9
9
9
9
9
9
9
9
9
9
9
9
9
9
9
9
9
9
9
9
9
9
9
9
9
9
9
9
9
9
9
9
9
9
9
9
9
9
9
9
9
9
9
9
9
9
9
9
9
9
9
9
9
9
9
9
9
9
9
9
9
9
9
9
9
9
9
9
9
9
9
9
9
9
9
9
9
9
9
9
9
9
9
9
9
9
9
9
9
9
9
9
9
9
9
9
9
9
9
9
9
9
9
9
9
9
9
9
9
9
9
9
9
9
9
9
9
9
9
9
9
9
9
9
9
9
9
9
9
9
9
9
9
9
9
9
9
9
9
9
9
9
9
9
9
9
9
9
9
9
9
9
9
9
9
9
9
9
9
9
9
9
9
9
9
9
9
9
9
9
9
9
9
9
9
9
9
9
9
9
9
9
9
9
9
9
9
9
9
9
9
9</DataArray>
                <DataArray type="UInt64" Name="region" format="ascii">
0
0
0
0
0
0
0
0
0
0
0
0
0
0
0
0
0
0
0
0
0
0
0
0
0
0
0
0
0
0
0
0
0
0
0
0
0
0
0
0
0
0
0
0
0
0
0
0
0
0
0
0
0
0
0
0
0
0
0
0
0
0
0
0
0
0
0
0
0
0
0
0
0
0
0
0
0
0
0
0
0
0
0
0
0
0
0
0
0
0
0
0
0
0
0
0
0
0
0
0
0
0
0
0
0
0
0
0
0
0
0
0
0
0
0
0
0
0
0
0
0
0
0
0
0
0
0
0
0
0
0
0
0
0
0
0
0
0
0
0
0
0
0
0
0
0
0
0
0
0
0
0
0
0
0
0
0
0
0
0
0
0
0
0
0
0
0
0
0
0
0
0
0
0
0
0
0
0
0
0
0
0
1
1
1
1
1
1
1
1
1
1
1
1
1
1
1
1
1
1
1
1
1
1
1
1
1
1
1
1
1
1
1
1
1
1
1
1
1
1
1
1
1
1
1
1
1
1
1
1
1
1
1
1
1
1
1
1
1
1
1
1
1
1
1
1
1
1
1
1
1
1
1
1
1
1
1
1
1
1
1
1
1
1
1
1
1
1
1
1
1
1
1
1
1
1
1
1
1
1
1
1
1
1
1
1
1
1
1
1
1
1
1
1
1
1
1
1
1
1
1
1
1
1
1
1
1
1
1
1
1
1
1
1
1
1
1
1
1
1
1
1
1
1
1
1
1
1
1
1
1
1
1
1
1
1
1
1
1
1
1
1
1
1
1
1
1
1
1
1
1
1
1
1
1
1
1
1
1
1
1
1
1
1
1
1
1
1
1
1
1
1
1
1
1
1
1
1
1
1
1
1
1
1
1
1
1
1
1
1
1
1
1
1
1
1
1
1
1
1
1
1
1
1
1
1
1
1
1
1
1
1
1
1
1
1
1
1
1
1
1
1
1
1
1
1
1
1
1
1
1
1
1
1
1
1
1
1
1
1
1
1
1
1
1
1
1
1
1
1
1
1
1
1
1
1
1
1
1
1
1
1
1
1
1
1
1
1
1
1
1
1
1
1
1
1
1
1
1
1
1
1
1
1
1
1
1
1
1
1
1
1
1
1
1
1
1
1
1
1
1
1
1
1
1
1
1
1
1
1
1
1
1
1
1
1
1
1
1
1
1
1
1
1
1
1
1
1
2
2
2
2
2
2
2
2
2
2
2
2
2
2
2
2
2
2
2
2
2
2
2
2
2
2
2
2
2
2
2
2
2
2
2
2
2
2
2
2
2
2
2
2
2
2
2
2
2
2
2
2
2
2
2
2
2
2
2
2
2
2
2
2
2
2
2
2
2
2
2
2
2
2
2
2
2
2
2
2
2
2
2
2
2
2
2
2
2
2
2
2
2
2
2
2
2
2
2
2
2
2
2
2
2
2
2
2
2
2
2
2
2
2
2
2
2
2
2
2
2
2
2
2
2
2
2
2
2
2
2
2
2
2
2
2
2
2
2
2
2
2
2
2
2
2
2
2
2
2
2
2
2
2
2
2
2
2
2
2
2
2
2
2
2
2
2
2
2
2
2
2
2
2
2
2
2
2
2
3
3
3
3
3
3
3
3
3
3
3
3
3
3
3
3
3
3
3
3
3
3
3
3
3
3
3
3
3
3
3
3
3
3
3
3
3
3
3
3
3
3
3
3
3
3
3
3
3
3
3
3
3
3
3
3
3
3
3
3
3
3
3
3
3
3
3
3
3
3
3
3
3
3
3
3
3
3
3
3
3
3
3
3
3
3
3
3
3
3
3
3
3
3
3
3
3
3
3
3
3
3
3
3
3
3
3
3
3
3
3
3
3
3
3
3
3
3
3
3
3
3
3
3
3
3
3
3
3
3
3
3
3
3
3
3
3
3
3
3
3
3
3
3
3
3
3
3
3
3
3
3
3
3
3
3
3
3
3
3
3
3
3
3
3
3
3
3
3
3
3
3
3
3
3
3
3
3
3
3
3
3
3
3
3
3
3
3
3
3
3
3
3
3
3
3
3
3
3
3
3
3
3
3
3
3
3
3
3
3
3
3
3
3
3
3
3
3
3
3
3
3
3
3
3
3
3
3
3
3
3
3
3
3
3
3
3
3
3
3
3
3
3
3
3
3
3
3
3
3
3
3
3
3
3
3
3
3
3
3
3
3
3
3
3
3
3
3
3
3
3
3
3
3
3
3
3
3
3
3
3
3
3
3
3
3
3
3
3
3
3
3
3
3
3
3
3
3
3
3
3
3
3
3
3
3
3
3
3
3
3
3
3
3
3
3
3
3
3
3
3
3
3
3
3
3
3
3
3
3
3
3
3
3
3
3
3
3
3
3
3
3
3
3
3
3
3
3
3
3
3
3
3
3
3
3
3
3
3
3
3
3
3
3
3
3
3
3
3
3
3
3
3
3
3
3
3
3
3
3
3
3
3
3
3
3
3
3
3
3
3
3
3
3
3
3
3
3
3
3
3
3
3
3
3
3
3
3
3
3
3
3
3
3
3
3
3
3
3
3
3
3
3
3
3
3
3
3
3
3
3
3
3
3
3
3
3
3
3
3
3
3
3
3
3
3
3
3
3
3
3
3
3
3
3
3
3
3
3
3
3
3
3
3
3
3
3
3
3
3
3
3
3
3
3
3
3
3
3
3
3
3
3
3
3
3
3
3
3
3
3
3
3
3
3
3
3
3
3
3
3
3
3
3
3
3
3
3
3
3
3
3
3
3
3
3
3
3
3
3
3
3
3
3
3
3
3
3
3
3
3
3
3
3
3
3
3
3
3
3
3
3
3
3
3
3
3
3
3
3
3
3
3
3
3
3
3
3
3
3
3
3
3
3
3
3
3
3
3
3
3
3
3
3
3
3
3
3
3
3
3
3
3
3
3
3
3
3
3
3
3
3
3
3
3
3
3
3
3
3
3
3
3
3
3
3
3
3
3
3
3
3
3
3
3
3
3
3
3
3
3
3
3
3
3
3
3
3
3
3
3
3
3
3
3
3
3
3
3
3
3
3
3
3
7
7
7
7
7
7
7
7
7
7
7
7
7
7
7
7
7
7
7
7
7
7
7
7
7
7
7
7
7
7
7
7
7
7
7
7
7
7
7
7
7
7
7
7
7
7
7
7
7
7
7
7
7
7
7
7
7
7
7
7
7
7
7
7
7
7
7
7
7
7
7
7
7
7
7
7
7
7
7
7
7
7
7
7
7
7
7
7
7
7
7
7
7
7
7
7
20
20
20
20
20
20
20
20
20
20
20
20
20
20
20
20
20
20
20
20
20
20
20
20
20
20
20
20
20
20
20
20
20
20
20
20
20
20
20
20
20
20
20
20
20
20
20
20
20
20
20
20
20
20
20
20
20
20
20
20
20
20
20
20
20
20
20
20
20</DataArray>
                <DataArray type="UInt64" Name="original_index" format="ascii">
13
22
44
70
71
85
98
99
118
125
127
129
134
174
176
177
191
235
236
248
331
406
417
498
500
520
545
547
551
588
590
591
593
595
602
603
605
606
609
611
613
614
621
697
715
740
741
742
758
776
778
785
806
808
819
826
828
847
848
850
851
854
855
856
857
858
861
863
864
867
869
871
872
873
878
885
888
889
893
895
896
897
898
899
900
901
908
910
915
917
920
921
922
925
926
928
929
930
984
987
997
1001
1002
1003
1005
1012
1023
1024
1025
1040
1048
1052
1057
1079
1085
1094
1099
1100
1101
1105
1106
1117
1118
1119
1135
1138
1139
1140
1142
1146
1172
1183
1189
1194
1199
1201
1202
1204
1205
1206
1207
1210
1211
1213
1214
1215
1216
1217
1218
1220
1221
1222
1223
1224
1225
1226
1228
1229
1231
1232
1233
1234
1235
1236
1239
1241
1242
1244
1250
1251
1252
1253
1254
1255
1256
1258
1259
1260
1266
1268
1269
1270
2090
2093
2096
2100
2125
2139
2152
2158
2168
2175
2201
2213
2248
2269
2273
2284
2350
2361
2379
2396
2411
2423
2430
2460
2463
2479
2488
2494
2505
2519
2525
2532
2536
2549
2553
2558
2560
2566
2568
2584
2585
2589
2592
2608
2609
2610
2611
2617
2618
2654
2689
2694
2728
2730
2731
2738
2739
2740
2741
2754
2761
2774
2780
2786
2805
2810
2817
2821
2840
2855
2878
2880
2884
2887
2890
2894
2897
2926
2951
2981
2998
2999
3010
3014
3015
3016
3034
3045
3056
3076
3106
3113
3128
3136
3139
3145
3149
3153
3154
3187
3218
3228
3237
3244
3250
3278
3325
3336
3340
3410
3416
3421
3455
3456
3478
3497
3504
3510
3514
3515
3516
3519
3527
3584
3587
3599
3601
3604
3607
3633
3634
3647
3655
3659
3673
3674
3676
3681
3683
3700
3702
3703
3712
3718
3754
3758
3794
3795
3808
3832
3842
3859
3900
3919
3923
3933
3934
3958
3959
3969
3974
3977
3992
3994
4019
4030
4040
4044
4058
4082
4093
4094
4101
4103
4104
4118
4120
4151
4181
4242
4282
4283
4311
4327
4343
4353
4357
4366
4401
4461
4467
4480
4511
4532
4559
4577
4592
4609
4616
4620
4636
4647
4657
4660
4675
4680
4681
4696
4710
4729
4737
4753
4760
4761
4774
4796
4827
4839
4855
4863
4883
4884
4904
4929
4939
4940
4945
4960
4988
4991
5005
5010
5015
5032
5044
5060
5084
5091
5094
5099
5103
5129
5163
5164
5187
5217
5224
5242
5326
5347
5357
5360
5374
5378
5399
5401
5404
5407
5409
5433
5435
5445
5456
5458
5459
5495
5507
5508
5524
5531
5533
5538
5552
5562
5575
5581
5606
5612
5618
5629
5633
5641
5655
5662
5664
5676
5677
5680
5702
5705
5712
5730
5743
5760
5762
5778
5781
5783
5791
5793
5795
5820
5851
5853
5856
5863
5866
5879
5890
5910
5930
5942
5944
5963
5965
5972
5993
5997
6010
6015
6054
6058
6096
6141
6154
6158
6164
6167
6168
6174
6180
6195
6234
6247
6253
6297
6298
6299
6300
6301
6302
6303
6304
6305
6306
6307
6399
6400
6403
6406
6413
6421
6470
6476
6477
6479
6488
6494
6500
6502
6516
6517
6521
6533
6536
6542
6546
6550
6551
6555
6559
6587
6590
6596
6637
6682
6684
6701
6702
6726
6753
6770
6789
6891
6898
6900
6909
6923
6944
6989
6990
6994
6995
6996
6999
7002
7004
7008
7009
7010
7011
7016
7022
7027
7040
7107
7135
7143
7178
7197
7209
7220
7221
7222
7225
7226
7228
7229
7236
7239
7246
7250
7258
7260
7265
7266
7268
7269
7271
7272
7274
7275
7276
7277
7278
7279
7280
7285
7286
7287
7289
7291
7292
7293
7302
7309
7321
7322
7323
7324
7325
7326
7330
7331
7332
7339
7340
7341
7346
7349
7355
7377
7485
7488
7489
7498
7503
7508
7509
7510
7512
7515
7516
7517
7518
7519
7541
7550
7573
7575
7577
7580
7586
7595
7598
7618
7621
7640
7643
7644
7649
7656
7659
7660
7661
7662
7663
7664
7665
7666
7667
7668
7671
7672
7675
7676
7677
7678
7679
7680
7681
7682
7683
7684
7685
7686
7687
7688
7689
7690
7691
7692
7693
7694
7702
8467
8475
8479
8488
8495
8498
8500
8509
8511
8517
8520
8522
8525
8528
8540
8548
8553
8571
8573
8574
8578
8596
8606
8626
8632
8640
8641
8664
8672
8673
8678
8683
8695
8705
8714
8715
8730
8733
8749
8754
8763
8768
8771
8778
8782
8785
8790
8791
8815
8841
8860
8880
8881
8890
8934
8935
8936
8938
8939
8947
8949
8955
8973
9003
9028
9047
9059
9061
9085
9097
9113
9115
9131
9132
9153
9155
9167
9173
9178
9179
9193
9203
9209
9224
9235
9243
9276
9278
9286
9298
9303
9307
9314
9316
9317
9326
9333
9349
9360
9367
9373
9374
9378
9381
9386
9403
9408
9410
9423
9426
9441
9445
9447
9451
9478
9479
9489
9496
9505
9508
9510
9511
9519
9530
9531
9552
9560
9571
9576
9577
9579
9583
9605
9617
9626
9631
9635
9676
9678
9698
9699
9706
9711
9719
9729
9744
9746
9755
9763
9777
9778
9781
9790
9791
9800
9811
9828
9835
9844
9847
9855
9876
9892
9900
9907
9910
9913
9927
9948
9967
9974
9992
10002
10013
10024
10030
10034
10039
10045
10060
10061
10076
10078
10081
10091
10094
10098
10124
10138
10139
10150
10185
10201
10207
10209
10222
10232
10237
10246
10278
10281
10296
10301
10306
10308
10320
10329
10347
10361
10377
10392
10405
10408
10409
10411
10415
10417
10419
10427
10430
10431
10455
10458
10463
10471
10476
10477
10481
10482
10487
10490
10495
10502
10520
10521
10542
10545
10554
10557
10571
10576
10577
10581
10582
10589
10592
10597
10600
10606
10610
10619
10620
10621
10631
10636
10640
10659
10673
10676
10683
10696
10697
10723
10724
10737
10744
10745
10756
10760
10779
10791
10793
10803
10814
10815
10820
10822
10824
10833
10835
10836
10839
10844
10853
10854
10862
10881
10908
10919
10921
10926
10932
10942
10949
10972
10978
10995
11002
11006
11016
11021
11023
11028
11031
11033
11038
11045
11053
11057
11062
11072
11075
11076
11082
11086
11097
11101
11113
11120
11121
11134
11138
11150
11152
11155
11161
11162
11173
11183
11187
11198
11200
11203
11205
11210
11217
11220
11226
11238
11242
11265
11272
11273
11281
11295
11296
11305
11310
11313
11319
11326
11332
11334
11338
11345
11352
11361
11367
11385
11388
11399
11405
11424
11451
11463
11466
11468
11508
11517
11522
11539
11549
11551
11557
11559
11571
11579
11584
11587
11588
11593
11599
11618
11630
11631
11647
11651
11655
11657
11658
11665
11675
11683
11684
11695
11708
11734
11738
11740
11741
11751
11752
11754
11761
11763
11769
11773
11777
11782
11787
11788
11793
11801
11802
11818
11822
11832
11839
11855
11857
11875
11879
11891
11898
11905
11910
11917
11931
11933
11934
11935
11936
11940
11945
11949
11950
11951
11956
11957
11976
11995
12006
12008
12012
12014
12024
12025
12031
12034
12036
12045
12054
12059
12071
12077
12082
12085
12092
12114
12117
12135
12141
12154
12156
12160
12165
12177
12184
12185
12190
12191
12200
12206
12210
12211
12227
12250
12254
12272
12281
12283
12289
12291
12299
12319
12320
12322
12349
12356
12362
12372
12373
12387
12402
12403
12404
12406
12416
12423
12481
12486
12495
12499
12504
12532
12548
12549
12551
12559
12561
12563
12579
12585
12590
12591
12595
12622
12637
12655
12675
12679
12683
12686
12692
12695
12700
12715
12719
12726
12733
12734
12746
12756
12768
12770
12773
12776
12781
12782
12791
12803
12806
12815
12830
12831
12832
12855
12871
12894
12906
12912
12915
12918
12923
12927
12930
12931
12951
12965
12973
12978
12985
13000
13025
13034
13049
13066
13074
13084
13085
13090
13091
13098
13110
13115
13120
13135
13139
13167
13183
13190
13209
13215
13225
13231
13236
13281
13282
13283
13284
13287
13288
13289
13293
13294
13298
13299
13300
13324
13325
13326
13327
13328
13329
13330
13331
13332
13335
13336
13338
13340
13341
13342
13343
13344
13345
13346
13347
13357
13358
13376
13382
13383
13384
13385
13448
13449
13450
13451
13452
13461
13462
13463
13492
13493
13495
13501
13503
13504
13505
13506
13507
13508
13509
2428
2429
2430
2431
2432
2433
2446
2447
2448
2449
2450
2451
2452
2453
2712
2713
2714
2715
2717
2719
2742
2743
2744
2745
2746
2747
2748
2749
2781
2783
2784
2785
2786
2787
2788
2790
2802
2803
2804
2805
2806
2807
2830
2831
2832
2833
2834
2835
2836
2837
2838
2839
2840
2841
2842
2844
2845
2846
2847
2848
2853
2855
2856
2857
2858
2861
2862
2881
2883
2884
2885
2886
2907
2914
2915
2916
2917
2918
2919
2921
2922
2923
2924
2925
2926
2927
2928
2929
2930
2931
2932
2933
2934
2935
2936
2937
3887
3888
3890
3892
4136
4178
4179
4187
4188
4189
4190
4191
4192
4193
4194
4195
4196
4243
4244
4245
4246
4247
4248
4249
4250
4251
4252
4253
4254
4255
4256
4257
4258
4260
4263
4264
4265
4266
4321
4322
4323
4324
4325
4326
4327
4328
4329
4330
4331
4332
4333
4334
4343
4344
4345
4346
4383
4384
4385
4386
4387
4388
4389
4390
4391
4392
4393
4394
4396</DataArray>
            </CellData>
            <Cells>
                <DataArray type="UInt64" Name="connectivity" format="ascii">
0 1 2 3 
4 5 6 7 
8 9 10 11 
12 13 14 15 
16 17 18 19 
20 21 4 22 
14 23 24 25 
5 6 7 26 
27 28 29 30 
24 3 31 32 
33 18 32 34 
35 36 37 38 
39 18 33 34 
13 40 41 14 
25 33 32 34 
33 2 3 32 
42 43 37 11 
27 44 45 46 
21 5 4 7 
28 27 47 30 
48 49 5 26 
28 27 5 7 
36 50 37 11 
45 44 51 52 
27 51 29 45 
28 27 29 45 
45 27 48 5 
53 54 4 55 
44 27 45 51 
5 4 6 54 
56 42 23 25 
26 5 57 58 
35 43 37 56 
48 46 49 26 
45 27 46 48 
46 45 48 49 
59 44 60 52 
61 62 15 56 
54 6 53 4 
40 41 14 31 
0 63 3 32 
60 13 41 12 
35 43 62 38 
64 8 10 11 
36 10 11 38 
43 35 37 38 
61 12 14 15 
13 60 40 52 
17 18 19 2 
45 46 40 49 
65 66 1 57 
37 42 11 67 
44 45 46 52 
68 69 70 71 
27 48 5 7 
60 46 40 52 
9 8 50 11 
17 18 2 39 
28 27 45 5 
43 37 11 38 
37 36 11 38 
9 36 10 11 
9 50 36 11 
13 72 60 52 
60 13 40 41 
61 42 56 25 
13 41 12 14 
45 48 49 5 
54 20 21 4 
63 1 0 3 
41 61 12 14 
46 45 40 52 
46 60 40 41 
14 61 15 56 
21 28 7 22 
18 0 19 2 
60 44 46 52 
63 26 57 58 
72 59 60 52 
68 73 70 39 
62 35 15 56 
61 62 12 15 
42 43 61 56 
43 42 37 56 
43 35 62 56 
43 62 61 56 
44 51 52 74 
72 59 52 74 
59 44 52 74 
48 5 7 26 
0 75 19 2 
17 16 18 39 
27 28 47 7 
3 63 31 32 
46 40 49 26 
76 50 67 37 
18 2 39 33 
54 21 5 4 
54 6 66 53 
24 14 25 31 
6 66 53 65 
28 47 7 22 
54 20 4 55 
4 21 7 22 
21 28 5 7 
73 68 70 71 
66 54 53 55 
54 66 20 55 
4 20 22 55 
0 1 75 2 
73 42 23 76 
63 65 1 57 
71 42 76 67 
14 61 56 25 
5 6 26 57 
77 0 75 19 
23 33 25 34 
1 77 0 75 
23 73 33 34 
65 63 1 0 
42 73 71 76 
54 6 5 57 
24 23 33 25 
33 24 25 32 
50 37 11 67 
73 68 71 78 
50 76 67 79 
73 71 76 78 
17 80 16 39 
81 79 67 78 
73 39 33 34 
18 0 2 32 
16 80 70 39 
77 65 1 0 
49 5 26 58 
73 42 71 34 
80 68 70 39 
18 2 33 32 
40 26 31 58 
16 70 18 39 
41 61 14 25 
25 24 31 32 
24 33 3 32 
73 70 39 34 
63 1 3 57 
75 17 19 2 
6 54 66 57 
70 73 71 34 
6 66 65 57 
40 46 41 31 
14 56 23 25 
3 63 57 58 
14 41 25 31 
2 0 3 32 
6 65 63 57 
26 6 63 57 
40 49 26 58 
46 40 26 31 
63 3 31 58 
3 24 31 58 
70 18 39 34 
26 63 31 58 
40 24 31 14 
24 40 31 58 
64 8 11 67 
42 73 23 34 
42 23 25 34 
79 76 67 78 
8 50 11 67 
50 8 79 67 
42 37 76 67 
76 71 67 78 
42 37 56 76 
42 56 23 76 
68 69 71 78 
82 81 67 78 
71 82 67 78 
71 69 82 78 
64 8 67 83 
79 81 67 83 
8 79 67 83 
81 82 67 83 
84 85 86 87 
88 89 90 91 
92 93 91 94 
95 96 97 98 
99 100 101 102 
15 14 56 98 
98 96 103 104 
105 74 106 107 
108 8 91 50 
73 23 109 110 
33 2 39 84 
111 112 84 86 
113 108 114 115 
93 114 91 94 
116 93 92 94 
15 56 35 117 
105 118 106 119 
108 37 114 115 
118 120 105 106 
96 121 103 104 
57 3 112 86 
122 123 124 125 
96 126 97 98 
5 58 49 127 
98 56 117 115 
113 114 110 115 
39 33 84 128 
129 130 131 86 
132 84 128 87 
133 131 134 112 
79 81 94 102 
36 50 9 108 
135 136 90 137 
112 3 84 86 
45 5 49 127 
138 95 97 109 
3 1 2 84 
138 97 139 109 
140 113 114 110 
113 89 93 114 
141 142 134 119 
39 80 143 128 
144 54 124 86 
126 98 117 115 
98 126 110 115 
37 56 110 115 
126 113 110 115 
114 37 110 115 
56 110 98 23 
142 145 104 119 
15 98 117 103 
142 49 127 119 
58 24 142 112 
145 118 104 119 
93 99 140 102 
93 116 100 94 
97 126 140 110 
100 78 101 102 
133 141 142 134 
108 135 90 137 
146 147 113 148 
149 136 137 150 
28 45 122 125 
139 138 109 101 
23 24 109 98 
113 147 108 148 
49 45 127 106 
57 134 127 86 
138 132 111 84 
85 84 132 87 
52 105 106 104 
96 95 133 142 
5 54 57 127 
52 13 72 104 
105 106 104 119 
109 23 98 110 
109 73 110 101 
45 127 106 125 
36 37 108 148 
124 151 127 125 
151 152 127 125 
14 24 98 142 
138 111 109 84 
153 154 155 117 
28 124 127 125 
131 134 112 86 
33 3 2 84 
156 157 139 101 
49 58 40 142 
96 155 98 103 
99 93 116 100 
76 110 101 102 
56 76 110 23 
109 95 142 112 
106 152 125 119 
97 109 98 110 
158 159 136 137 
136 159 149 137 
106 40 104 119 
105 72 103 104 
122 106 107 125 
76 56 110 37 
136 90 137 150 
74 52 105 106 
108 89 114 91 
109 111 112 84 
57 58 134 86 
66 54 144 86 
2 1 75 87 
3 24 112 84 
57 1 3 86 
84 2 128 87 
154 160 146 148 
73 76 110 101 
136 161 90 150 
130 144 134 86 
111 131 112 86 
56 15 98 117 
14 40 142 104 
58 57 134 127 
155 126 98 117 
3 1 84 86 
24 109 142 112 
142 133 134 112 
120 105 106 107 
161 135 136 90 
89 135 88 90 
28 5 45 127 
162 121 118 105 
141 145 133 142 
51 45 52 106 
109 95 98 142 