<?xml version="1.0" encoding="UTF-8"?>
<VTKFile type="UnstructuredGrid" version="0.1" byte_order="LittleEndian">
    <UnstructuredGrid>
        <Piece NumberOfPoints="375" NumberOfCells="1714">
            <PointData>
                <DataArray type="UInt64" Name="original_index" format="ascii" NumberOfComponents="1">
119
8
2
32
849
451
848
506
735
33
385
154
702
450
847
505
765
448
892
504
798
799
741
391
388
795
37
740
159
160
503
449
820
794
387
386
736
850
452
390
453
437
701
389
739
797
796
895
896
555
933
597
932
737
38
39
155
738
91
118
598
436
92
554
894
507
34
156
117
819
764
493
893
36
35
851
454
508
157
158
595
553
161
556
931
912
552
545
869
589
596
1714
1715
1711
2186
1795
1796
1807
2187
2364
2188
2291
2463
1968
2022
1969
2213
1783
1784
2320
2227
2388
2461
1970
1971
1911
2306
1910
2223
279
1798
1908
1909
2021
2068
277
1907
278
1912
283
1801
2239
2246
2210
2347
2070
2025
2316
2345
1797
1805
1804
1781
2243
276
1794
2253
9
352
2462
2444
1913
353
2361
2233
2457
2272
94
93
1778
2429
1779
1914
2290
2107
2067
2106
1906
1966
1965
1803
1802
1782
2193
2453
1712
2302
1780
1915
1972
1973
282
1800
1905
354
2069
2452
2214
2377
2108
1806
2336
2023
2024
1790
2141
2371
1808
1785
2256
1799
1967
630
280
2140
281
2020
2019
1226
1227
1083
1138
1137
1136
203
1023
1024
1028
1184
1183
1224
1082
1141
1086
1139
1140
1087
1088
1022
1081
1020
1019
1135
1021
206
205
1026
1225
201
1185
1084
1186
198
197
1085
1027
1187
207
1025
202
208
1029
209
162
1080
15
199
204
1817
1816
324
2519
2778
1818
2479
2591
2490
2704
2818
2562
2748
2822
2494
1534
2750
1814
2472
2476
1622
2819
2838
2856
2600
1580
1581
1620
1421
323
1745
2471
2526
2511
2717
2783
2697
2699
2758
2594
2640
1420
322
1536
1535
1482
1425
1815
2666
1422
325
1423
2560
2483
2489
2613
1427
331
1428
1748
2694
1484
1483
1424
1481
1480
326
327
2521
1744
1485
1539
237
1746
1540
1582
1479
2514
330
1747
2478
1655
2731
2736
2813
1812
1621
2703
2606
1429
1486
1487
1537
1426
1813
1579
1533
332
19
329
328
1654
1656
2732
1585
1623
1584
1819
2698
1619
1749
2863
1743
1538
1583
2544
1532</DataArray>
            </PointData>
            <Points>
                <DataArray type="Float64" Name="Points" format="ascii" NumberOfComponents="3">
-4590.38 -3582.59 810.106
-5291.11 -3582.59 665.935
-5291.11 -3582.59 869.944
-5291.11 -2859.56 861.149
-3525.62 393.561 1003.16
-4114.69 32.3913 1091.25
-3525.98 -329.13 1003.96
-3525.15 392.788 1203.3
-4703.5 -2497.78 778.773
-5291.11 -2136.45 859.789
-4703.5 -2497.79 978.772
-5291.11 -2859.53 661.107
-4237.96 -2980.92 871.627
-4114.99 -690.276 1091.59
-3526.54 -1051.79 1005.89
-3525.96 -329.132 1203.91
-3886.28 -2379.19 936.805
-4115.18 -2136.17 1093.27
-2937 -690.621 1115.47
-3526.56 -1051.77 1205.93
-4116.75 1478.96 902.953
-4117.12 2203.26 903.551
-4704.64 1840.91 787.32
-4704.32 1841.72 988.296
-4703.18 -328.754 976.108
-4115 -690.302 891.688
-5291.11 755.975 862.213
-4704.01 1117.02 784.107
-5291.11 755.909 661.957
-5291.11 1478.99 664.549
-3526.38 -1774.59 1205.41
-4115.26 -1413.25 1092.9
-3534.92 -1777.48 1003.87
-4115.24 -1413.25 892.89
-4703.3 -1051.76 976.599
-4703.39 -1774.84 977.323
-4703.37 -1774.83 777.301
-3526.91 1117.14 1008.63
-4114.71 754.377 1095.24
-4703.86 1116.27 986.022
-4116.82 1479 1103.53
-4237.26 -2980.89 1071.65
-3534.46 -2980.93 1001.17
-4703.31 394.008 978.306
-4703.31 393.989 778.185
-4115.19 755.14 895.163
-4114.72 32.3815 891.3
-2938.06 1479.54 1117.82
-2939.28 2203.35 1123.77
-2938.06 1479.57 1317.92
-2348.1 1841.61 1221.99
-2346.26 1118.09 1413.36
-2346.27 1118.07 1213.39
-4703.29 -1051.77 776.586
-5291.11 1478.99 869.521
-5291.11 2202.04 862.429
-5291.11 -2136.44 659.812
-4703.18 -328.792 776.123
-3886.97 -3582.59 1144.15
-3887.76 -3582.59 944.758
-2348.11 1841.64 1422.13
-3533.83 -2980.9 1201.26
-4589.64 -3582.59 1010.11
-2936.31 755.606 1311.14
-2936.26 755.605 1110.75
-3526.87 1117.15 1208.55
-5291.11 -1413.35 859.408
-5291.11 -1413.35 659.406
-3183.57 -3582.59 1070.98
-2831.12 -1777.54 1132.17
-3182.59 -2379.21 1065.39
-3181.99 -2379.17 1265.46
-2936.1 32.0444 1111.66
-5291.11 32.873 859.65
-5291.11 -690.236 859.198
-3528.68 1841.31 1016.37
-4116.7 2204.09 1104.04
-3528.69 1841.37 1216.64
-5291.11 -690.265 659.179
-5291.11 32.8251 659.627
-2346.07 -330.264 1420.01
-2935.63 31.2597 1311.77
-5291.11 2202.07 662.341
-2939.27 2203.41 1323.91
-2345.82 394.083 1214.13
-2126.92 -574.328 1260.08
-2937 -690.638 1315.44
-2830.53 -1777.47 1332.11
-2479.45 -1175.92 1198.29
-2478.95 -1175.83 1398.57
-2345.86 394.075 1414.39
-4231.95 -3582.59 2642.68
-3525.85 -3582.59 2642.68
-3641.49 -3582.59 1799.7
-4062.99 -2600.93 2099.49
-5291.11 1840.5 2647.72
-5291.11 1117.42 2647.72
-5291.11 1478.83 2061.08
-4284.99 1113.85 2240.88
-4627.74 748.593 1600.31
-2916.14 -324.826 2279.77
-3440.29 56.8301 1881.03
-2777.76 311.34 1980.25
-4092.29 32.8001 3247.13
-3492.89 -328.739 3247.13
-4092.29 -690.278 3247.13
-3901.62 -328.739 2347.82
-5291.11 1111.43 1465.25
-5291.11 1846.39 1465.35
-4624.38 1515.45 1679.91
-3306.2 755.879 2286.56
-3918.61 627.372 1806.11
-3382.92 1363.35 1857.91
-4092.29 -1413.36 3247.13
-4092.29 -2136.44 3247.13
-4691.7 -1774.9 3247.13
-4722.43 -1773.73 2242.53
-4691.7 -1051.82 3247.13
-4102.33 -1051.82 2557.12
-5291.11 32.8001 3247.13
-5291.11 -328.739 2647.72
-4691.7 394.339 3247.13
-4691.7 -328.739 3247.13
-3492.89 394.339 3247.13
-2893.48 32.8001 3247.13
-5291.11 1478.96 3247.13
-4691.7 1117.42 3247.13
-5291.11 755.879 3247.13
-4691.7 -2497.97 3247.13
-5291.11 -2859.51 3247.13
-5291.11 -2497.97 2647.72
-4616.49 -2886.14 2572.51
-4643.73 -2135.5 1650.5
-4464.38 -1051.64 1867.3
-3945.77 -1948.37 1783.03
-2466.7 -1164.81 3247.13
-2819.75 -1769.26 3247.13
-3188.51 -1232.34 2364.15
-2113.64 -1033.09 2592.09
-5291.11 394.339 2647.72
-5291.11 30.3697 2059.5
-5291.11 -690.437 2058.33
-5291.11 -329.057 1458.82
-4722.72 -330.333 2243.02
-5291.11 2202.04 3247.13
-5291.11 2563.58 2647.72
-4510.46 2202.04 2466.48
-5291.11 -3582.59 3247.13
-4585.01 -3582.59 3247.13
-2558.22 154.623 2644.19
-4700.92 2223.88 1662.74
-4231.95 -2978.15 3247.13
-3878.9 -3582.59 3247.13
-3653.15 -2058.11 2517.89
-2743.46 1562.65 2278.57
-3473.52 1478.96 2551.76
-4282.96 394.339 2569.78
-5291.11 -3582.59 2454.73
-5291.11 -3582.59 1662.34
-5291.11 -2496.88 1459.87
-4687.98 -2839.26 1597.78
-5291.11 -1774.58 1459
-3525.85 -2978.15 3247.13
-2275.23 712.868 2329.45
-2294.07 394.339 3247.13
-2893.48 755.879 3247.13
-2294.07 1117.42 3247.13
-4691.7 1840.5 3247.13
-4092.29 1478.96 3247.13
-4092.29 2202.04 3247.13
-5291.11 -1412.86 2058.29
-5291.11 -2135.01 2059.07
-5291.11 392.299 1460.33
-2891.02 -2132.96 2291.54
-3398.74 -2722.69 1856.97
-4351.06 -3582.59 1668.19
-3172.8 -2859.57 2524.11
-5291.11 -1051.62 1458.7
-2819.75 -2978.15 3247.13
-3172.8 -2373.7 3247.13
-2466.7 -2373.7 3247.13
-5291.11 -2136.44 3247.13
-5291.11 -1774.9 2647.72
-4691.7 2563.58 3247.13
-3172.8 -3582.59 3247.13
-2893.48 -690.278 3247.13
-2775.69 -896.938 1941.98
-4640.97 30.5882 1651.5
-3470.67 -688.675 1855.83
-2294.07 -328.739 3247.13
-5291.11 747.75 2063.36
-3892.8 1837.04 1994.43
-3492.89 -1051.82 3247.13
-3492.89 -1774.9 3247.13
-5291.11 -3005.51 2058.54
-1694.66 32.8001 3247.13
-2915.82 2574.81 2282.26
-5291.11 2212.17 2062.19
-5291.11 2567.81 1459.26
-1875.15 -345.627 2388.13
-5291.11 -1051.82 2647.72
-4092.29 755.879 3247.13
-1755.56 32.5179 1518.44
-5291.11 -690.278 3247.13
-1694.66 755.879 3247.13
-5291.11 -1413.36 3247.13
-3492.89 1117.42 3247.13
-3492.89 1840.5 3247.13
-2346.27 1118.07 413.394
-2348.1 1841.61 421.99
-4115.24 -1413.25 92.8896
-3525.98 -329.13 203.961
-3526.54 -1051.79 205.892
-3534.93 -1777.48 203.868
-5291.11 -1413.35 -140.594
-4703.37 -1774.83 -22.6982
-4703.29 -1051.77 -23.4143
-4704.64 1840.91 -12.6792
-2937 -690.622 315.467
-2479.46 -1175.91 398.284
-2126.94 -574.322 460.075
-3886.28 -2379.19 136.804
-3528.68 1841.31 216.374
-4115.19 755.14 95.1629
-3525.62 393.561 203.155
-3526.91 1117.14 208.635
-4116.75 1478.96 102.953
-4117.12 2203.26 103.552
-4703.5 -2497.78 -21.2276
-3182.6 -2379.21 265.383
-3534.47 -2980.93 201.169
-2829.75 -2980.93 323.911
-2831.13 -1777.54 332.171
-4237.96 -2980.92 71.6262
-5291.11 755.909 -138.043
-5291.11 32.8251 -140.373
-4703.31 393.989 -21.8148
-2345.82 394.083 414.131
-5291.11 -2859.53 -138.893
-2936.1 32.0444 311.657
-4115 -690.302 91.6877
-2936.26 755.605 310.749
-3887.77 -3582.59 144.756
-3183.58 -3582.59 270.98
-4114.72 32.3814 91.2998
-4704.01 1117.02 -15.8928
-2938.06 1479.54 317.82
-5291.11 1478.99 -135.451
-4703.18 -328.792 -23.8771
-5291.11 -2136.44 -140.188
-5291.11 2202.07 -137.659
-4703.97 2564.45 -19.5332
-5291.11 2925.14 -142.677
-5291.11 2925.14 657.323
-2477.59 -2379.23 386.686
-5291.11 -3582.59 -134.065
-4590.38 -3582.59 10.1051
-5291.11 -690.265 -140.822
-5291.11 1119.6 -736.148
-5291.11 396.299 -738.61
-5291.11 755.879 -1837.56
-4501.03 755.879 -1021.26
-3017.91 1846.61 -323.371
-5291.11 1838.7 -735.957
-2997.01 -1418.14 -752.24
-2113.64 -1363.93 -1041.33
-2339.77 -1964.09 -419.266
-1759.57 -1516.74 -175.069
-2457.26 -836.924 -493.209
-3057.02 1840.5 -1065.44
-2220.89 1247.31 -802.516
-2850.89 1117.42 -1184.17
-3901.62 1840.5 -864.747
-3492.89 1117.42 -1837.56
-3467.82 701.001 -1110.41
-5291.11 -1052 -740.112
-4121.18 -1774.9 -872.989
-4355.9 -828.01 -907.809
-2294.07 -328.739 -1837.56
-3084.15 -328.739 -1266.04
-2679.76 -927.253 -1184.44
-2384.98 -258.693 -979.365
-3804.43 1124.55 -535.325
-2893.48 1478.96 -1837.56
-2893.48 755.879 -1837.56
-2294.07 1117.42 -1837.56
-4691.7 1117.42 -1837.56
-5291.11 1478.96 -1837.56
-4125.82 -3582.59 -513.521
-3715.96 -2717.99 -781.709
-3709.75 -10.6186 -868.564
-2702.81 394.339 -759.231
-3214.25 731.752 -363.296
-2431.9 755.4 -200.587
-1919.2 -213.777 -357.53
-1507.64 -242.746 -1187.08
-1636.67 -891.922 -634.052
-3695.43 -670.592 -1209.68
-3575.15 -1413.36 -1204.24
-4691.7 1840.5 -1837.56
-5291.11 2202.04 -1837.56
-3492.89 -328.739 -1837.56
-3492.89 394.339 -1837.56
-4092.29 32.8001 -1837.56
-4691.7 -1774.9 -1837.56
-5291.11 -328.348 -740.001
-3716.92 -1050.31 -540.181
-4691.7 394.339 -1837.56
-5291.11 32.8001 -1837.56
-4691.7 -328.739 -1837.56
-4590.56 34.5936 -714.84
-3290.1 -2111.27 -480.739
-3108.84 -2005.73 -1194.34
-3172.8 -2949.09 -1204.06
-4231.95 -2978.15 -1837.56
-3878.9 -3582.59 -1837.56
-3525.85 -2978.15 -1837.56
-3525.85 -3582.59 -1233.12
-1906.69 358.939 -1074.1
-4092.29 -1413.36 -1837.56
-4092.29 -690.278 -1837.56
-4691.7 -1051.82 -1837.56
-4092.29 755.879 -1837.56
-4092.29 1478.96 -1837.56
-5291.11 -690.278 -1837.56
-5291.11 -1413.36 -1837.56
-3065.39 -2901.57 -407.583
-3429.51 -3582.59 -384.396
-4092.29 -2136.44 -1837.56
-2819.75 -1769.26 -1837.56
-5291.11 -3582.59 -985.814
-4819.49 -3582.59 -651.341
-2113.64 -1769.26 -1837.56
-2893.48 32.8001 -1837.56
-4092.29 2202.04 -1837.56
-4357.16 2686.59 -941.855
-4585.01 -3582.59 -1837.56
-4231.95 -3582.59 -1233.12
-4524.42 -2797.99 -1052.96
-1694.66 32.8001 -1837.56
-2315.58 -2690.77 -985.539
-2202.88 -2680.94 -243.426
-1778.91 -1979.07 -1229.47
-5291.11 -2499.06 -738.944
-2294.07 394.339 -1837.56
-3120.98 -130.437 -405.727
-4587.44 1479.14 -709.029
-2819.75 -2978.15 -1837.56
-3172.8 -2373.7 -1837.56
-2466.7 -2373.7 -1837.56
-3492.89 -1051.82 -1837.56
-4691.7 -2497.97 -1837.56
-5291.11 -1775.24 -739.795
-2893.48 2202.04 -1837.56
-3492.89 1840.5 -1837.56
-3172.8 -3582.59 -1837.56
-5291.11 -3582.59 -1837.56
-5291.11 -2859.51 -1837.56
-5291.11 -2136.44 -1837.56
-1694.66 755.879 -1837.56
-1054.49 44.0812 -1837.56
-858.428 334.893 -1090.34
-1760.59 -1164.81 -1837.56
-1407.54 -560.364 -1837.56
-2466.7 -1164.81 -1837.56
-5291.11 2559.45 -739.559
-3268.61 2597.72 -640.846
-2294.07 1840.5 -1837.56
-2819.75 -3582.59 -1233.12
-2057.53 1498.64 -144.448
-2730.16 -3582.59 -262.321
-3492.89 -1774.9 -1837.56
-2893.48 -690.278 -1837.56
-2420.45 2337.14 -746.471
-3492.89 2563.58 -1837.56</DataArray>
            </Points>
            <CellData>
                <DataArray type="UInt64" Name="partition" format="ascii">
7
7
7
7
7
7
7
7
7
7
7
7
7
7
7
7
7
7
7
7
7
7
7
7
7
7
7
7
7
7
7
7
7
7
7
7
7
7
7
7
7
7
7
7
7
7
7
7
7
7
7
7
7
7
7
7
7
7
7
7
7
7
7
7
7
7
7
7
7
7
7
7
7
7
7
7
7
7
7
7
7
7
7
7
7
7
7
7
7
7
7
7
7
7
7
7
7
7
7
7
7
7
7
7
7
7
7
7
7
7
7
7
7
7
7
7
7
7
7
7
7
7
7
7
7
7
7
7
7
7
7
7
7
7
7
7
7
7
7
7
7
7
7
7
7
7
7
7
7
7
7
7
7
7
7
7
7
7
7
7
7
7
7
7
7
7
7
7
7
7
7
7
7
7
7
7
7
7
7
7
7
7
7
7
7
7
7
7
7
7
7
7
7
7
7
7
7
7
7
7
7
7
7
7
7
7
7
7
7
7
7
7
7
7
7
7
7
7
7
7
7
7
7
7
7
7
7
7
7
7
7
7
7
7
7
7
7
7
7
7
7
7
7
7
7
7
7
7
7
7
7
7
7
7
7
7
7
7
7
7
7
7
7
7
7
7
7
7
7
7
7
7
7
7
7
7
7
7
7
7
7
7
7
7
7
7
7
7
7
7
7
7
7
7
7
7
7
7
7
7
7
7
7
7
7
7
7
7
7
7
7
7
7
7
7
7
7
7
7
7
7
7
7
7
7
7
7
7
7
7
7
7
7
7
7
7
7
7
7
7
7
7
7
7
7
7
7
7
7
7
7
7
7
7
7
7
7
7
7
7
7
7
7
7
7
7
7
7
7
7
7
7
7
7
7
7
7
7
7
7
7
7
7
7
7
7
7
7
7
7
7
7
7
7
7
7
7
7
7
7
7
7
7
7
7
7
7
7
7
7
7
7
7
7
7
7
7
7
7
7
7
7
7
7
7
7
7
7
7
7
7
7
7
7
7
7
7
7
7
7
7
7
7
7
7
7
7
7
7
7
7
7
7
7
7
7
7
7
7
7
7
7
7
7
7
7
7
7
7
7
7
7
7
7
7
7
7
7
7
7
7
7
7
7
7
7
7
7
7
7
7
7
7
7
7
7
7
7
7
7
7
7
7
7
7
7
7
7
7
7
7
7
7
7
7
7
7
7
7
7
7
7
7
7
7
7
7
7
7
7
7
7
7
7
7
7
7
7
7
7
7
7
7
7
7
7
7
7
7
7
7
7
7
7
7
7
7
7
7
7
7
7
7
7
7
7
7
7
7
7
7
7
7
7
7
7
7
7
7
7
7
7
7
7
7
7
7
7
7
7
7
7
7
7
7
7
7
7
7
7
7
7
7
7
7
7
7
7
7
7
7
7
7
7
7
7
7
7
7
7
7
7
7
7
7
7
7
7
7
7
7
7
7
7
7
7
7
7
7
7
7
7
7
7
7
7
7
7
7
7
7
7
7
7
7
7
7
7
7
7
7
7
7
7
7
7
7
7
7
7
7
7
7
7
7
7
7
7
7
7
7
7
7
7
7
7
7
7
7
7
7
7
7
7
7
7
7
7
7
7
7
7
7
7
7
7
7
7
7
7
7
7
7
7
7
7
7
7
7
7
7
7
7
7
7
7
7
7
7
7
7
7
7
7
7
7
7
7
7
7
7
7
7
7
7
7
7
7
7
7
7
7
7
7
7
7
7
7
7
7
7
7
7
7
7
7
7
7
7
7
7
7
7
7
7
7
7
7
7
7
7
7
7
7
7
7
7
7
7
7
7
7
7
7
7
7
7
7
7
7
7
7
7
7
7
7
7
7
7
7
7
7
7
7
7
7
7
7
7
7
7
7
7
7
7
7
7
7
7
7
7
7
7
7
7
7
7
7
7
7
7
7
7
7
7
7
7
7
7
7
7
7
7
7
7
7
7
7
7
7
7
7
7
7
7
7
7
7
7
7
7
7
7
7
7
7
7
7
7
7
7
7
7
7
7
7
7
7
7
7
7
7
7
7
7
7
7
7
7
7
7
7
7
7
7
7
7
7
7
7
7
7
7
7
7
7
7
7
7
7
7
7
7
7
7
7
7
7
7
7
7
7
7
7
7
7
7
7
7
7
7
7
7
7
7
7
7
7
7
7
7
7
7
7
7
7
7
7
7
7
7
7
7
7
7
7
7
7
7
7
7
7
7
7
7
7
7
7
7
7
7
7
7
7
7
7
7
7
7
7
7
7
7
7
7
7
7
7
7
7
7
7
7
7
7
7
7
7
7
7
7
7
7
7
7
7
7
7
7
7
7
7
7
7
7
7
7
7
7
7
7
7
7
7
7
7
7
7
7
7
7
7
7
7
7
7
7
7
7
7
7
7
7
7
7
7
7
7
7
7
7
7
7
7
7
7
7
7
7
7
7
7
7
7
7
7
7
7
7
7
7
7
7
7
7
7
7
7
7
7
7
7
7
7
7
7
7
7
7
7
7
7
7
7
7
7
7
7
7
7
7
7
7
7
7
7
7
7
7
7
7
7
7
7
7
7
7
7
7
7
7
7
7
7
7
7
7
7
7
7
7
7
7
7
7
7
7
7
7
7
7
7
7
7
7
7
7
7
7
7
7
7
7
7
7
7
7
7
7
7
7
7
7
7
7
7
7
7
7
7
7
7
7
7
7
7
7
7
7
7
7
7
7
7
7
7
7
7
7
7
7
7
7
7
7
7
7
7
7
7
7
7
7
7
7
7
7
7
7
7
7
7
7
7
7
7
7
7
7
7
7
7
7
7
7
7
7
7
7
7
7
7
7
7
7
7
7
7
7
7
7
7
7
7
7
7
7
7
7
7
7
7
7
7
7
7
7
7
7
7
7
7
7
7
7
7
7
7
7
7
7
7
7
7
7
7
7
7
7
7
7
7
7
7
7
7
7
7
7
7
7
7
7
7
7
7
7
7
7
7
7
7
7
7
7
7
7
7
7
7
7
7
7
7
7
7
7
7
7
7
7
7
7
7
7
7
7
7
7
7
7
7
7
7
7
7
7
7
7
7
7
7
7
7
7
7
7
7
7
7
7
7
7
7
7
7
7
7
7
7
7
7
7
7
7
7
7
7
7
7
7
7
7
7
7
7
7
7
7
7
7
7
7
7
7
7
7
7
7
7
7
7
7
7
7
7
7
7
7
7
7
7
7
7
7
7
7
7
7
7
7
7
7
7
7
7
7
7
7
7
7
7
7
7
7
7
7
7
7
7
7
7
7
7
7
7
7
7
7
7
7
7
7
7
7
7
7
7
7
7
7
7
7
7
7
7
7
7
7
7
7
7
7
7
7
7
7
7
7
7
7
7
7
7
7
7
7
7
7
7
7
7
7
7
7
7
7
7
7
7
7
7
7
7
7
7
7
7
7
7
7
7
7
7
7
7
7
7
7
7
7
7
7
7
7
7
7
7
7
7
7
7
7
7
7
7
7
7
7
7
7
7
7
7
7
7
7
7
7
7
7
7
7
7
7
7
7
7
7
7
7
7
7
7
7
7
7
7
7
7
7
7
7
7
7
7
7
7
7
7
7
7
7
7
7
7
7
7
7
7
7
7
7
7
7
7
7
7
7
7
7
7
7
7
7
7
7
7
7
7
7
7
7
7
7
7
7
7
7
7
7
7
7
7
7
7
7
7
7
7
7
7
7
7
7
7
7
7
7
7
7
7
7
7
7
7
7
7
7
7
7
7
7
7
7
7
7
7
7
7
7
7
7
7
7
7
7
7
7
7
7
7
7
7
7
7
7
7
7
7
7
7
7
7
7
7
7
7
7
7
7
7
7
7
7
7
7
7
7
7
7
7
7
7
7
7
7
7
7
7
7
7
7
7</DataArray>
                <DataArray type="UInt64" Name="region" format="ascii">
0
0
0
0
0
0
0
0
0
0
0
0
0
0
0
0
0
0
0
0
0
0
0
0
0
0
0
0
0
0
0
0
0
0
0
0
0
0
0
0
0
0
0
0
0
0
0
0
0
0
0
0
0
0
0
0
0
0
0
0
0
0
0
0
0
0
0
0
0
0
0
0
0
0
0
0
0
0
0
0
0
0
0
0
0
0
0
0
0
0
0
0
0
0
0
0
0
0
0
0
0
0
0
0
0
0
0
0
0
0
0
0
0
0
0
0
0
0
0
0
0
0
0
0
0
0
0
0
0
0
0
0
0
0
0
0
0
0
0
0
0
0
0
0
0
0
0
0
0
0
0
0
0
0
0
0
0
0
0
0
0
0
0
0
0
0
0
0
0
0
0
0
0
0
0
0
0
0
0
0
0
0
0
0
0
0
0
0
0
0
0
0
0
0
0
0
0
0
0
1
1
1
1
1
1
1
1
1
1
1
1
1
1
1
1
1
1
1
1
1
1
1
1
1
1
1
1
1
1
1
1
1
1
1
1
1
1
1
1
1
1
1
1
1
1
1
1
1
1
1
1
1
1
1
1
1
1
1
1
1
1
1
1
1
1
1
1
1
1
1
1
1
1
1
1
1
1
1
1
1
1
1
1
1
1
1
1
1
1
1
1
1
1
1
1
1
1
1
1
1
1
1
1
1
1
1
1
1
1
1
1
1
1
1
1
1
1
1
1
1
1
1
1
1
1
1
1
1
1
1
1
1
1
1
1
1
1
1
1
1
1
1
1
1
1
1
1
1
1
1
1
1
1
1
1
1
1
1
1
1
1
1
1
1
1
1
1
1
1
1
1
1
1
1
1
1
1
1
1
1
1
1
1
1
1
1
1
1
1
1
1
1
1
1
1
1
1
1
1
1
1
1
1
1
1
1
1
1
1
1
1
1
1
1
1
1
1
1
1
1
1
1
1
1
1
1
1
1
1
1
1
1
1
1
1
1
1
1
1
1
1
1
1
1
1
1
1
1
1
1
1
1
1
1
1
1
1
1
1
1
1
1
1
1
1
1
1
1
1
1
1
1
1
1
1
1
1
1
1
1
1
1
1
1
1
1
1
1
1
1
1
1
1
1
1
1
1
1
1
1
1
1
1
1
1
1
1
1
1
1
1
1
1
1
1
1
1
1
1
1
1
1
1
1
1
1
1
1
1
1
1
1
1
1
1
1
1
1
1
1
1
1
1
1
1
1
1
1
1
1
1
1
1
1
1
1
1
1
1
1
1
1
1
1
1
1
1
1
1
1
1
1
1
1
1
1
1
1
1
1
1
1
1
1
1
1
1
1
1
1
1
1
1
1
1
1
1
1
1
1
1
1
1
1
1
1
1
1
1
1
1
1
1
1
1
1
1
1
1
1
1
1
1
1
1
1
1
1
1
1
1
1
1
1
1
1
1
1
1
1
1
1
1
1
1
1
1
1
1
1
1
1
1
1
1
1
1
1
1
1
1
1
1
1
1
1
1
1
1
1
1
1
1
1
1
1
2
2
2
2
2
2
2
2
2
2
2
2
2
2
2
2
2
2
2
2
2
2
2
2
2
2
2
2
2
2
2
2
2
2
2
2
2
2
2
2
2
2
2
2
2
2
2
2
2
2
2
2
2
2
2
2
2
2
2
2
2
2
2
2
2
2
2
2
2
2
2
2
2
2
2
2
2
2
2
2
2
2
2
2
2
2
2
2
2
2
2
2
2
2
2
2
2
2
2
2
2
2
2
2
2
2
2
2
2
2
2
2
2
2
2
2
2
2
2
2
2
2
2
2
2
2
2
2
2
2
2
2
2
2
2
2
2
2
2
2
2
2
2
2
2
2
2
2
2
2
2
2
2
2
2
2
2
2
2
2
2
2
2
2
2
2
2
2
2
2
2
2
2
2
2
2
2
2
2
2
2
2
2
2
2
2
2
2
2
2
2
2
2
2
2
2
2
2
2
2
3
3
3
3
3
3
3
3
3
3
3
3
3
3
3
3
3
3
3
3
3
3
3
3
3
3
3
3
3
3
3
3
3
3
3
3
3
3
3
3
3
3
3
3
3
3
3
3
3
3
3
3
3
3
3
3
3
3
3
3
3
3
3
3
3
3
3
3
3
3
3
3
3
3
3
3
3
3
3
3
3
3
3
3
3
3
3
3
3
3
3
3
3
3
3
3
3
3
3
3
3
3
3
3
3
3
3
3
3
3
3
3
3
3
3
3
3
3
3
3
3
3
3
3
3
3
3
3
3
3
3
3
3
3
3
3
3
3
3
3
3
3
3
3
3
3
3
3
3
3
3
3
3
3
3
3
3
3
3
3
3
3
3
3
3
3
3
3
3
3
3
3
3
3
3
3
3
3
3
3
3
3
3
3
3
3
3
3
3
3
3
3
3
3
3
3
3
3
3
3
3
3
3
3
3
3
3
3
3
3
3
3
3
3
3
3
3
3
3
3
3
3
3
3
3
3
3
3
3
3
3
3
3
3
3
3
3
3
3
3
3
3
3
3
3
3
3
3
3
3
3
3
3
3
3
3
3
3
3
3
3
3
3
3
3
3
3
3
3
3
3
3
3
3
3
3
3
3
3
3
3
3
3
3
3
3
3
3
3
3
3
3
3
3
3
3
3
3
3
3
3
3
3
3
3
3
3
3
3
3
3
3
3
3
3
3
3
3
3
3
3
3
3
3
3
3
3
3
3
3
3
3
3
3
3
3
3
3
3
3
3
3
3
3
3
3
3
3
3
3
3
3
3
3
3
3
3
3
3
3
3
3
3
3
3
3
3
3
3
3
3
3
3
3
3
3
3
3
3
3
3
3
3
3
3
3
3
3
3
3
3
3
3
3
3
3
3
3
3
3
3
3
3
3
3
3
3
3
3
3
3
3
3
3
3
3
3
3
3
3
3
3
3
3
3
3
3
3
3
3
3
3
3
3
3
3
3
3
3
3
3
3
3
3
3
3
3
3
3
3
3
3
3
3
3
3
3
3
3
3
3
3
3
3
3
3
3
3
3
3
3
3
3
3
3
3
3
3
3
3
3
3
3
3
3
3
3
3
3
3
3
3
3
3
3
3
3
3
3
3
3
3
3
3
3
3
3
3
3
3
3
3
3
7
7
7
7
7
7
7
7
7
7
7
7
7
7
7
7
7
7
7
7
7
7
7
7
7
7
7
7
7
7
7
7
7
7
7
7
7
7
7
7
7
7
7
7
7
7
7
7
7
7
7
7
7
7
7
7
7
7
7
7
7
7
7
7
7
7
7
7
7
7
7
7
7
7
7
7
7
7
7
7
7
7
7
8
8
8
8
8
8
8
8
8
8
8
8
8
9
9
9
9
9
10
10
10
10
10
10
11
11
11
11
11
11
11
11
11
11
11
11
11
11
11
11
11
11
11
12
12
12
12
12
12
12
12
12
12
12
12
12
12
12
12
12
12
12
12
12
12
12
12
12
12
12
12
12
12
12
12
12
12
12
12
12
12
12
12
12
12
12
12
12
12
12
12
12
12
12
12
12
12
12
12
12
12
12
12
12
12
12
13
13
13
13
13
13
13
13
13
13
13
13
13
13
13
13
14
14
14
14
14
14
14
14
14
14
14
14
14
14
14
14
14
14
15
15
15
15
15
15
15
15
15
15
15
15
15
15
15
15
15
15
15
15
15
15
15
15
15
15
15
15
15
15
15
15
15
20
20
20
20
20
20
20
20
20
20
20
20
20
20
20
20
20
20
20
20
20
20
20
20
20
20
20
20
20
20
20
20
20
20
20
20
20
20
20
20
20
20
20
20
20
20
20
20
20
20
20
20
20
20
20
20
20
20
20
20
20
20
20
20
20
20
20
20
20</DataArray>
                <DataArray type="UInt64" Name="original_index" format="ascii">
7
12
17
19
21
26
32
42
43
49
53
55
58
64
82
89
92
106
108
110
112
114
119
122
123
163
186
187
197
201
202
210
233
239
240
250
252
254
255
256
258
259
261
262
263
267
269
272
273
274
275
276
278
280
281
282
283
286
287
289
290
291
292
294
296
297
298
300
301
303
304
305
308
312
316
317
318
320
323
325
329
333
334
335
336
337
339
340
341
342
343
344
345
349
350
351
352
353
354
356
358
359
360
361
362
363
366
367
368
369
371
374
375
376
381
382
385
386
387
388
390
391
392
393
397
399
414
421
430
456
457
458
472
489
502
503
506
523
532
533
534
542
543
544
546
548
549
582
596
597
607
608
849
923
927
932
933
934
937
939
944
946
951
952
953
962
963
964
965
971
972
976
978
979
980
983
985
986
988
989
990
991
994
995
1000
1004
1006
1007
1009
1010
1015
1016
1017
1018
1026
1029
1030
1031
1032
2080
2081
2082
2109
2131
2133
2144
2151
2155
2178
2190
2197
2203
2217
2224
2231
2237
2238
2239
2247
2267
2271
2272
2274
2277
2280
2336
2339
2345
2352
2356
2370
2380
2390
2391
2393
2395
2399
2413
2415
2422
2426
2432
2449
2455
2468
2483
2497
2513
2518
2524
2537
2543
2555
2565
2569
2570
2571
2574
2575
2577
2580
2583
2587
2591
2593
2594
2600
2616
2620
2623
2626
2639
2668
2682
2688
2712
2727
2751
2764
2766
2769
2777
2779
2783
2787
2796
2799
2824
2826
2841
2848
2852
2870
2877
2886
2891
2892
2893
2895
2896
2898
2900
2909
2910
2913
2922
2927
2948
2949
2952
2968
2971
2972
2976
2992
3021
3078
3115
3117
3118
3123
3132
3164
3171
3175
3197
3205
3214
3216
3232
3241
3242
3243
3247
3274
3289
3299
3300
3311
3318
3345
3372
3374
3394
3396
3398
3404
3413
3433
3445
3448
3453
3498
3503
3520
3556
3562
3573
3590
3603
3610
3614
3621
3649
3697
3698
3699
3715
3716
3727
3728
3744
3746
3769
3788
3799
3807
3816
3819
3824
3828
3829
3833
3838
3849
3850
3855
3867
3881
3882
3893
3920
3922
3925
3928
3929
3930
3931
3942
3949
3952
3953
3954
3961
3967
3975
3981
3983
3985
3986
3995
3997
3999
4003
4010
4012
4025
4032
4041
4047
4050
4053
4070
4073
4079
4163
4165
4184
4187
4191
4192
4222
4226
4245
4253
4255
4260
4261
4276
4281
4287
4297
4301
4320
4328
4339
4362
4370
4378
4389
4392
4393
4413
4419
4432
4477
4479
4497
4505
4510
4515
4531
4540
4543
4545
4549
4564
4568
4587
4593
4596
4618
4629
4635
4639
4642
4655
4664
4671
4676
4677
4684
4691
4699
4704
4709
4714
4718
4727
4734
4740
4741
4783
4799
4803
4804
4807
4812
4817
4828
4847
4849
4861
4868
4874
4897
4902
4905
4908
4961
4971
4972
4981
4984
4999
5017
5048
5053
5067
5070
5073
5106
5121
5136
5137
5149
5175
5192
5193
5197
5202
5210
5211
5213
5215
5234
5248
5253
5256
5278
5279
5280
5288
5296
5304
5317
5321
5333
5335
5340
5352
5358
5361
5366
5373
5385
5395
5396
5412
5420
5439
5446
5451
5461
5462
5463
5472
5475
5480
5486
5489
5509
5515
5535
5546
5548
5549
5567
5571
5576
5580
5586
5587
5596
5619
5631
5640
5668
5672
5678
5681
5714
5716
5719
5739
5740
5754
5758
5770
5775
5777
5782
5785
5811
5817
5819
5827
5829
5830
5838
5843
5867
5871
5894
5905
5911
5914
5924
5929
5931
5932
5945
5955
5968
5971
5978
5979
6012
6034
6036
6037
6040
6041
6042
6069
6089
6097
6109
6110
6117
6122
6133
6153
6170
6175
6186
6193
6199
6203
6216
6223
6225
6236
6256
6308
6309
6311
6312
6317
6340
6341
6342
6345
6348
6350
6370
6371
6372
6373
6374
6375
6376
6377
6378
6379
6380
6404
6405
6412
6418
6426
6430
6437
6440
6444
6445
6455
6457
6462
6475
6483
6505
6508
6509
6510
6514
6527
6529
6534
6541
6544
6564
6572
6583
6593
6629
6634
6635
6639
6643
6658
6661
6674
6675
6678
6679
6681
6683
6688
6693
6694
6695
6696
6699
6710
6715
6723
6724
6725
6737
6739
6746
6747
6748
6750
6754
6766
6772
6775
6776
6782
6793
6796
6797
6799
6800
6805
6811
6814
6819
6910
6913
6924
6932
6935
6939
6942
6945
6948
6949
6958
6959
6960
6961
6963
6984
6985
6986
6987
6988
7005
7025
7050
7235
7251
7261
7270
7282
7283
7295
7305
7327
7342
7347
7348
7350
7351
7353
7354
7360
7370
7371
7372
7373
7374
7376
7380
7383
7391
7392
7394
7395
7396
7397
7399
7400
7401
7402
7403
7404
7405
7406
7407
7408
7409
7410
7411
7412
7413
7414
7415
7416
7417
7418
7420
7421
7422
7423
7424
7425
7426
7427
7428
7429
7430
7431
7432
7433
7434
7435
7436
7437
7438
7439
7440
7441
7442
7443
7444
7445
7446
7447
7448
7449
7450
7451
7452
7453
7454
7455
7456
7457
7458
7459
7460
7463
7464
7468
7469
7470
7471
7472
7473
7474
7475
7476
8469
8470
8474
8485
8489
8497
8501
8543
8546
8550
8564
8567
8576
8598
8611
8619
8642
8646
8647
8679
8680
8681
8685
8697
8704
8710
8720
8725
8737
8739
8740
8743
8765
8775
8779
8798
8803
8819
8827
8833
8836
8838
8856
8868
8892
8894
8895
8903
8905
8909
8910
8913
8914
8929
8930
8956
8961
8965
8979
8985
8992
9002
9011
9012
9019
9021
9029
9038
9042
9053
9054
9063
9067
9069
9079
9084
9089
9092
9093
9096
9100
9104
9106
9118
9144
9148
9150
9158
9162
9168
9171
9172
9176
9184
9191
9194
9201
9205
9219
9221
9230
9232
9236
9279
9301
9312
9313
9330
9343
9350
9354
9384
9385
9400
9401
9419
9427
9429
9461
9463
9468
9469
9483
9484
9487
9491
9493
9499
9506
9528
9536
9537
9540
9547
9549
9562
9573
9580
9587
9625
9646
9648
9659
9667
9669
9690
9700
9721
9732
9741
9754
9779
9796
9822
9830
9831
9868
9869
9880
9881
9882
9906
9915
9922
9925
9929
9938
9943
9955
9959
9989
10010
10016
10018
10025
10043
10048
10079
10093
10099
10103
10112
10120
10127
10133
10142
10145
10148
10155
10169
10173
10176
10178
10186
10198
10210
10214
10216
10221
10225
10230
10231
10239
10249
10279
10293
10294
10295
10299
10309
10314
10315
10328
10339
10348
10378
10384
10386
10387
10395
10397
10400
10421
10435
10466
10470
10489
10500
10501
10507
10523
10531
10533
10570
10578
10585
10602
10603
10604
10609
10613
10630
10637
10645
10646
10656
10661
10681
10684
10698
10701
10710
10716
10735
10738
10752
10758
10771
10781
10788
10825
10843
10849
10869
10887
10889
10891
10917
10925
10933
10965
10973
10977
10998
11001
11018
11041
11048
11102
11103
11105
11106
11114
11126
11131
11154
11160
11166
11180
11191
11197
11206
11241
11249
11279
11286
11301
11315
11316
11341
11351
11358
11359
11369
11371
11389
11417
11420
11421
11423
11429
11440
11450
11460
11475
11481
11482
11486
11494
11495
11510
11519
11523
11525
11526
11529
11541
11597
11605
11619
11629
11644
11648
11660
11681
11713
11730
11791
11805
11843
11846
11848
11850
11886
11896
11899
11907
11947
11954
11963
11975
11988
11992
12011
12019
12057
12070
12108
12119
12122
12131
12132
12138
12147
12164
12167
12169
12171
12182
12203
12207
12218
12221
12224
12237
12240
12246
12247
12285
12295
12298
12300
12303
12305
12315
12318
12324
12325
12326
12337
12339
12346
12369
12371
12374
12378
12385
12419
12447
12460
12468
12475
12480
12484
12489
12493
12498
12502
12503
12505
12506
12514
12515
12517
12523
12526
12527
12528
12529
12530
12531
12533
12535
12536
12538
12544
12553
12554
12555
12556
12565
12611
12612
12620
12621
12631
12632
12642
12643
12644
12645
12651
12656
12658
12668
12680
12681
12682
12685
12690
12704
12709
12717
12722
12724
12744
12748
12755
12764
12804
12805
12811
12820
12833
12837
12862
12890
12922
12926
12958
12959
12972
12974
12980
12982
13002
13003
13006
13008
13012
13014
13036
13061
13062
13089
13094
13102
13104
13107
13111
13117
13125
13129
13160
13166
13173
13204
13226
13227
13257
13258
13315
13316
13320
13321
13322
13323
13422
13423
13424
13459
13460
13464
2421
2422
2423
2424
2425
2426
2757
2759
2762
2789
2791
2792
2793
2794
2795
2796
2870
2872
2873
2874
2875
2876
2877
2878
2879
2880
2882
2887
2888
2889
2890
2891
2892
2893
2894
2895
2896
2897
2898
2899
2900
2901
2902
2903
2904
2905
2906
2908
2909
2910
2911
2912
2913
2920
3078
3079
3080
3081
3082
3083
3084
3085
3086
3087
3088
3089
3090
3091
3092
3093
3094
3095
3096
3097
3098
3099
3100
3101
3102
3103
3104
3105
3106
3136
3173
3179
3190
3193
3194
3196
3197
3198
3199
3200
3201
3202
3257
3258
3259
3260
3261
3270
3271
3272
3273
3274
3275
3401
3404
3409
3411
3438
3439
3440
3441
3442
3443
3444
3445
3446
3447
3448
3449
3450
3451
3452
3470
3471
3472
3473
3474
3475
3476
3477
3478
3479
3480
3481
3482
3483
3484
3485
3486
3487
3488
3489
3490
3491
3492
3493
3494
3495
3496
3498
3499
3501
3502
3505
3506
3508
3509
3511
3512
3513
3514
3527
3544
3545
3547
3548
3549
3550
3551
3552
3553
3554
3555
3556
3557
3558
3559
3560
3561
3562
3563
3564
3565
3566
3567
3570
3571
3572
3573
3574
3575
3576
3577
3578
3579
3580
3581
3582
3583
3584
3585
3602
3603
3604
3605
3606
3607
3608
3609
3610
3611
3612
3613
3614
3615
3616
3617
3618
3619
3620
3621
3622
3623
3624
3627
3628
3629
3630
3634
3635
3636
3637
3638
3639
3640
3641
3642
3643
3644
3645
3646
3647
3648
3649
3650
3651
3652
3653
3654
3655
3656
3660
4221
4259
4283
4284
4285
4286
4287
4288
4289
4290
4291
4292
4293
4294
4295
4296
4348
4349
4350
4357
4358
4359
4360
4361
4362
4363
4365
4379
4380
4381
4382
4504
4508
4509
4510
4511
4512
4513
4514
4515
4516
4517
4518
4519
4520
4521
4522
4523
4524
4525
4526
4527
4528
4529
4530
4531
4532
4533
4534
4535
4536
4537
4538
4539
4540
4541
4542
4544
4545</DataArray>
            </CellData>
            <Cells>
                <DataArray type="UInt64" Name="connectivity" format="ascii">
0 1 2 3 
4 5 6 7 
3 8 9 10 
0 11 3 12 
13 14 6 15 
8 16 17 10 
18 14 19 15 
20 21 22 23 
24 5 13 25 
26 27 28 29 
14 30 31 32 
13 33 31 34 
9 8 35 10 
11 3 12 8 
33 36 17 35 
13 14 33 25 
4 37 38 7 
39 38 20 40 
41 12 16 42 
33 36 35 34 
43 44 45 46 
9 8 36 35 
47 48 49 50 
49 51 52 50 
8 17 35 10 
24 34 53 25 
47 49 52 50 
21 20 40 23 
54 29 55 22 
54 39 22 23 
12 41 16 10 
16 41 17 10 
20 39 40 23 
14 13 6 25 
24 13 34 25 
8 56 9 36 
24 57 44 46 
39 20 22 23 
41 58 59 42 
3 12 8 10 
60 51 49 50 
41 58 42 61 
33 14 31 32 
4 5 38 45 
62 0 3 12 
34 33 53 25 
39 38 45 20 
63 64 7 65 
41 62 3 12 
36 8 17 35 
1 0 11 3 
62 0 2 3 
8 12 16 10 
3 41 12 10 
12 41 59 42 
11 3 8 9 
56 11 8 9 
27 39 20 22 
4 5 45 46 
56 9 36 66 
67 56 36 66 
17 33 31 32 
9 36 66 35 
58 59 42 68 
69 70 71 30 
17 33 35 31 
33 36 16 17 
18 72 6 15 
36 8 16 17 
4 64 37 7 
16 33 17 32 
36 66 35 34 
14 13 33 31 
62 0 12 59 
41 62 12 59 
62 41 58 59 
69 32 70 30 
64 37 7 65 
14 18 6 15 
70 16 71 30 
30 14 31 19 
43 44 27 45 
5 43 38 45 
24 43 44 73 
5 24 43 46 
13 5 6 25 
13 33 34 25 
63 47 49 52 
27 39 45 20 
38 37 40 65 
24 25 57 46 
74 24 57 73 
40 75 76 77 
24 5 25 46 
33 35 31 34 
77 47 49 65 
75 47 77 65 
33 36 34 53 
24 34 74 53 
5 4 6 46 
36 67 66 53 
36 66 34 53 
66 67 74 53 
34 66 74 53 
37 4 38 45 
43 24 44 46 
67 74 53 78 
43 39 38 45 
39 43 27 45 
57 24 44 73 
74 24 53 57 
44 73 28 79 
44 57 73 79 
53 24 25 57 
57 74 73 79 
43 39 27 26 
43 44 73 26 
44 43 27 26 
5 43 45 46 
5 6 25 46 
53 74 57 78 
27 44 26 28 
44 73 26 28 
57 74 79 78 
72 18 80 81 
38 37 45 20 
47 48 77 49 
29 82 55 22 
27 29 54 22 
21 40 76 23 
48 77 49 83 
75 21 40 76 
55 54 22 23 
51 63 49 52 
39 27 26 54 
26 27 29 54 
39 27 54 22 
37 75 40 65 
38 37 20 40 
20 37 75 40 
21 20 75 40 
17 16 32 30 
63 64 47 52 
47 48 75 77 
14 13 19 15 
37 38 7 65 
5 13 6 15 
72 64 4 7 
49 60 50 83 
48 49 50 83 
64 63 72 84 
63 64 52 84 
18 72 80 85 
18 80 81 86 
31 17 32 30 
47 63 49 65 
16 42 70 61 
41 16 17 61 