<?xml version="1.0" encoding="UTF-8"?>
<VTKFile type="UnstructuredGrid" version="0.1" byte_order="LittleEndian">
    <UnstructuredGrid>
        <Piece NumberOfPoints="354" NumberOfCells="1632">
            <PointData>
                <DataArray type="UInt64" Name="original_index" format="ascii" NumberOfComponents="1">
134
715
397
45
558
557
876
917
714
775
396
509
897
852
510
457
511
458
853
455
918
559
877
801
394
456
800
741
799
392
391
952
633
951
831
459
512
513
832
136
717
718
399
133
162
743
163
41
48
400
776
460
878
514
830
599
896
933
40
778
454
745
42
395
393
556
744
39
829
851
508
161
742
165
43
132
3
4
398
135
46
47
164
598
716
777
44
965
779
137
600
919
1811
1787
1788
2300
274
1792
1903
1793
2182
1298
2371
2434
2443
2464
1299
1300
1902
2396
2436
2178
2273
2399
2100
2135
2105
2467
2329
2057
2006
2398
2253
1808
2354
2444
2327
2225
66
1329
67
2439
1328
258
1889
257
2449
1810
1786
2401
1794
1905
276
2332
1952
1951
2007
2296
2334
272
1791
1809
1964
2192
1327
1888
2008
2450
2017
2018
2203
2454
2382
2204
2418
5
259
1950
2067
2066
2106
2233
2065
2019
1326
255
1887
2336
1789
1785
1963
1904
1886
1301
273
2457
1953
1890
275
1302
2064
256
2431
2337
1965
2139
2020
1030
1031
1029
1028
1088
1145
1144
1143
1141
1142
1090
1035
1034
1092
1089
1191
1229
1261
1032
216
1227
1188
895
1091
1033
1036
217
1093
1094
1189
209
210
211
1037
1190
1146
215
212
1147
1228
213
1187
14
218
214
1262
1192
1095
1038
1148
1230
2778
2743
2752
1600
2544
2659
2814
1354
1385
2470
2475
2574
2662
2532
2558
2590
1373
1337
1336
2503
2636
2580
2691
2866
1822
1416
2484
1331
1450
1387
2506
1355
2543
2710
2485
1372
318
235
284
17
1504
1505
1449
2547
1448
2729
1384
1353
1819
2514
1333
2721
2803
2553
1506
2698
1556
1420
322
1419
2747
2798
2713
2857
1579
1578
1532
2739
2723
319
1821
289
288
1388
1357
1452
1451
1507
2775
1478
1479
287
1356
2670
1332
2520
2669
2718
1334
1386
320
1417
2494
1820
1531
321
1418
286
1557
1335
285
1358
290
1389
2660
1477</DataArray>
            </PointData>
            <Points>
                <DataArray type="Float64" Name="Points" format="ascii" NumberOfComponents="3">
-3183.21 5817.43 1070.09
-3533.01 5215.91 993.887
-3532.62 5215.88 1193.99
-3887.03 5817.43 1143.7
-2478.35 3410.8 1393.49
-2937.49 2927.64 1318.29
-2478.57 3410.93 1193.43
-2127.43 2809.4 1263.15
-4236.55 5215.91 864.223
-3883.73 4614.23 923.334
-4236.06 5215.87 1064.25
-3527.71 2566.14 1213.63
-2937.98 2926.81 1118.22
-3528.2 2565.32 1013.55
-3526.02 3288.09 1201.2
-4113.4 4370.78 1079.37
-3524.18 4009.77 1191.18
-3179.68 4614.15 1251.91
-3526.01 3288.09 1001.21
-4115.61 2926.54 1093.23
-1421.09 2809.48 1379.1
-1773.45 3410.89 1516.49
-1773.55 3411.01 1316.38
-4114.06 3648.85 882.676
-4702.59 4009.84 967.24
-4114.07 3648.85 1082.68
-4115.62 2926.54 893.28
-4704.64 1840.91 787.32
-4117.12 2203.26 903.551
-4703.96 2564.43 980.46
-4704.32 1841.72 988.296
-1066.2 2207.97 1426.39
-1757.06 2203.14 1522.02
-1773.9 2207.86 1319.34
-2124.43 4012.52 1245.18
-2475.37 4614.11 1376.62
-2828.51 4012.41 1319.65
-2124.27 4012.42 1445.2
-1418.92 4012.58 1364.89
-1771.42 5817.43 1304.04
-2123.03 5215.84 1237.24
-1416.61 5215.8 1350.53
-2122.88 5215.82 1437.35
-3887.52 5817.43 943.916
-5291.11 2925.14 657.323
-4703.03 3287.26 771.522
-5291.11 3648.22 653.75
-5291.11 3648.22 853.754
-1771.39 5817.43 1504.64
-1416.54 5215.77 1550.43
-3180.03 4614.21 1051.84
-1770.2 4614.08 1496.69
-1067.07 3411.1 1431.39
-1418.86 4012.49 1564.89
-2828.81 4012.5 1119.6
-2348.66 2564.89 1426.44
-2939.28 2203.35 1123.77
-2348.1 1841.61 1221.99
-5291.11 2925.12 857.323
-1770.31 4614.14 1296.71
-4116.7 2204.09 1104.04
-4702.67 4732.24 769.37
-5291.11 4371.33 853.336
-4702.66 4732.26 969.365
-4703.04 3287.25 971.517
-2939.27 2203.41 1323.91
-4702.59 4009.83 767.249
-5291.11 2202.04 862.429
-3532.27 4012.5 989.631
-3528.68 1841.31 1016.37
-3528.69 1841.37 1216.64
-5291.11 2202.07 662.341
-4703.97 2564.45 780.467
-5291.11 5094.39 657.166
-5291.11 5094.43 857.288
-4590.55 5817.43 810.765
-5291.11 5817.43 868.44
-5291.11 5817.43 665.261
-2828.22 5215.86 1318.4
-2477.84 5817.43 1190.26
-3182.94 5817.43 1270.51
-2477.74 5817.43 1391.03
-5291.11 4371.31 653.324
-2348.11 1841.64 1422.13
-2828.49 5215.88 1118.27
-2475.6 4614.16 1176.57
-4589.98 5817.43 1010.63
-1755.45 1480.21 1312.3
-1063.88 4614.14 1410.41
-1063.95 5817.43 1411.17
-1421 2809.34 1579.13
-713.116 2809.55 1484.92
-5291.11 4368.4 2054.31
-5291.11 4010.12 1452.94
-5291.11 4729.6 1454.7
-4625.3 4390.72 1659.85
-5291.11 3648.19 3247.13
-5291.11 4009.73 2647.72
-4691.7 4009.73 3247.13
-5291.11 3286.65 2647.72
-4265.06 4788.32 2218.02
-4350.42 5817.43 1668.36
-2915.82 2574.81 2282.26
-3855.83 2639.49 2547.82
-3017.33 3397.43 2641.37
-3398.66 2849.79 1846.96
-3641.64 5817.43 1799.28
-2931.7 5817.43 1923.87
-4691.7 4732.81 3247.13
-4496.98 4039.69 2453
-4706.18 5206.86 2662.2
-1548.55 4435.3 2370.16
-2362.8 3670.29 2321.22
-1735.3 3790.2 2646.49
-2113.64 2795.2 3247.13
-1760.59 2190.75 3247.13
-2294.07 1840.5 3247.13
-2458.07 2246.25 2699.43
-3892.86 4131.33 1908.86
-2466.7 3399.65 3247.13
-2113.64 4004.09 3247.13
-2315.71 4291.4 2641.27
-4510.46 2202.04 2466.48
-5291.11 2212.17 2062.19
-4601.17 2981.37 2429.12
-4700.92 2223.88 1662.74
-3126.41 3500.29 1877.9
-2428.54 4899.37 2312.53
-5291.11 5817.43 2454.23
-4231.95 5817.43 2642.68
-5291.11 5817.43 1661.34
-4697.5 5084.28 1576.95
-3525.85 5817.43 2642.68
-3878.9 5817.43 3247.13
-3525.85 5212.98 3247.13
-3172.8 5817.43 3247.13
-2543.53 4255.96 1977.41
-5291.11 3651.53 2054.12
-5291.11 3289.63 1454.93
-4624.26 3662.73 1604.73
-5291.11 2563.58 2647.72
-4691.7 2563.58 3247.13
-5291.11 2202.04 3247.13
-1760.59 5147.49 2577.19
-3172.8 4608.54 3247.13
-2466.7 4608.54 3247.13
-2819.75 4004.09 3247.13
-3854.77 3364.33 2229.81
-4642.63 2934.05 1646.16
-5291.11 5094.35 3247.13
-5291.11 4732.81 2647.72
-5291.11 2932.32 2056.87
-4092.29 2925.11 3247.13
-3172.8 4203.21 2285.82
-2819.75 5817.43 2642.68
-2819.75 5212.98 3247.13
-3525.85 4004.09 3247.13
-3815.58 4240.2 2623.52
-3492.89 3286.65 3247.13
-3492.89 2563.58 3247.13
-1462.98 3168.15 2416.62
-2376.21 3047.17 2645.91
-4026.3 2533.33 1766.03
-3416.25 5054.55 2197.99
-2056.02 2578.82 2231.16
-5291.11 5817.43 3247.13
-4585.01 5817.43 3247.13
-1760.59 4608.54 3247.13
-2893.48 755.879 3247.13
-2893.48 1478.96 3247.13
-2294.07 1117.42 3247.13
-2743.46 1562.65 2278.57
-2893.48 2202.04 3247.13
-3492.89 1840.5 3247.13
-2113.64 5817.43 2642.68
-1760.59 5817.43 3247.13
-2113.64 5212.98 3247.13
-3892.8 1837.04 1994.43
-5291.11 5240.52 2057.79
-5291.11 2567.81 1459.26
-4092.29 3648.19 3247.13
-4691.7 3286.65 3247.13
-1407.54 5212.98 3247.13
-2220.11 5817.43 2041.9
-5291.11 4371.27 3247.13
-3473.52 1478.96 2551.76
-3878.9 4608.54 3247.13
-4231.95 5212.98 3247.13
-5291.11 2925.11 3247.13
-1506.79 5817.43 2152.7
-2893.48 2925.11 3247.13
-2466.7 5817.43 3247.13
-2085.44 1449.18 2611.97
-1522.88 1914.95 2323.07
-4092.29 2202.04 3247.13
-1694.66 1478.96 3247.13
-3492.89 1117.42 3247.13
-4703.03 3287.26 -28.4778
-4702.59 4009.83 -32.751
-4703.97 2564.45 -19.5332
-4704.64 1840.91 -12.6792
-4117.12 2203.26 103.552
-2828.82 4012.5 319.596
-3524.18 4009.78 191.175
-3526.01 3288.09 201.214
-3528.68 1841.31 216.374
-3528.2 2565.32 213.553
-4114.06 3648.85 82.676
-2828.51 5215.88 318.263
-3533.02 5215.91 193.885
-3180.04 4614.21 251.843
-4115.62 2926.54 93.2799
-1773.57 3411.01 516.378
-1421.11 2809.48 579.095
-1757.05 2203.1 521.958
-4702.67 4732.24 -30.6294
-2477.86 5817.43 390.259
-2348.1 1841.61 421.99
-2939.28 2203.35 323.767
-2938.06 1479.54 1117.82
-4113.4 4370.78 79.3806
-4236.56 5215.91 64.2223
-2123.05 5215.84 437.237
-1771.44 5817.43 504.032
-2475.61 4614.16 376.568
-1770.33 4614.13 496.704
-2937.98 2926.81 318.215
-5291.11 2925.14 -142.677
-5291.11 3648.22 -146.25
-5291.11 4371.31 -146.676
-1416.64 5215.8 550.523
-2478.59 3410.93 393.431
-2124.45 4012.52 445.172
-3183.22 5817.43 270.085
-5291.11 5094.39 -142.834
-1418.94 4012.58 564.885
-2348.67 2564.83 426.345
-4590.56 5817.43 10.764
-2938.06 1479.54 317.82
-5291.11 5817.43 -134.739
-1063.98 5817.43 611.162
-3887.53 5817.43 143.914
-1066.23 2207.96 626.389
-1067.09 3411.09 631.384
-1063.91 4614.14 610.407
-709.103 5215.78 656.744
-712.13 4012.66 677.323
-713.143 2809.55 684.915
-3017.91 1846.61 -323.371
-843.228 3735.43 -12.4278
-2021.94 3576.32 -142.375
-2113.64 2795.2 -1837.56
-2420.45 2337.14 -746.471
-1827.04 3033.13 -983.005
-2910.3 3181.13 -1011.68
-3525.85 5817.43 -1233.12
-3525.85 5212.98 -1837.56
-3172.8 5013.87 -1034
-4106.8 4787.39 -814.144
-2409.51 2966.17 -164.324
-2354.2 3726.12 -1007.76
-3172.8 3959.9 -823.353
-3733.47 3360.44 -616.286
-3785.45 4056.94 -470.975
-889.079 5817.43 -582.888
-625.433 5817.43 65.5645
-1327.62 5817.43 -37.2903
-602.135 4821.4 -329.083
-1677.1 4965.1 -1103.88
-1577.97 3861.98 -636.604
-2113.64 4430.22 -1252.49
-1092.66 4519.81 -1109.17
-5291.11 4736.04 -744.151
-4691.7 4732.81 -1837.56
-4349.19 3853.34 -923.716
-4818.48 5817.43 -651.091
-2466.7 4608.54 -1837.56
-2113.64 5212.98 -1837.56
-2466.7 5169.16 -1189.3
-2819.75 5817.43 -1233.12
-3074.46 5199.47 -352.286
-2342.39 5218.26 -461.109
-1647.85 5030.06 -286.989
-1585.16 5817.43 -688.192
-5291.11 5094.35 -1837.56
-5291.11 5817.43 -986.151
-4585.01 5817.43 -1837.56
-5291.11 5817.43 -1837.56
-3525.85 4004.09 -1837.56
-2819.75 4004.09 -1837.56
-3172.8 4608.54 -1837.56
-2819.75 4424.52 -1240.73
-3878.9 4608.54 -1837.56
-3539.03 4426.62 -1230.21
-4231.95 5212.98 -1837.56
-4231.95 5817.43 -1233.12
-5291.11 2559.45 -739.559
-4357.16 2686.59 -941.855
-3429.28 5817.43 -385.242
-2689.3 4475.6 -404.596
-2714 3596.01 -382.699
-1890.36 2472.98 -194.577
-2113.64 4004.09 -1837.56
-3268.61 2597.72 -640.846
-2466.7 3399.65 -1837.56
-4691.7 1840.5 -1837.56
-5291.11 2202.04 -1837.56
-4691.7 2563.58 -1837.56
-501.05 2489.44 91.8904
-1368.95 3095.18 -179.123
-1241.24 4367.08 -123.779
-1031.53 5239.85 -976.184
-2893.48 2202.04 -1837.56
-2893.48 2925.11 -1837.56
-3492.89 2563.58 -1837.56
-3619.99 2925.11 -1204.2
-1973.1 4383.3 -169.291
-5291.11 4371.27 -1837.56
-5291.11 4009.41 -745.867
-1054.49 5817.43 -1837.56
-1760.59 5817.43 -1837.56
-1407.54 5212.98 -1837.56
-1407.54 5817.43 -1233.12
-1054.49 4608.54 -1837.56
-1760.59 4608.54 -1837.56
-1407.54 4004.09 -1837.56
-1029.84 3790.58 -1173.76
-4092.29 2925.11 -1837.56
-4092.29 2202.04 -1837.56
-2466.7 5817.43 -1837.56
-2113.64 5817.43 -1233.12
-3732.39 3704.1 -1232.88
-4127.08 5817.43 -513.821
-1234.44 2418.97 -607.95
-471.374 3159.78 -328.9
-1104.64 3023.61 -1189.1
-2729.49 5817.43 -262.951
-2819.75 5212.98 -1837.56
-5291.11 3648.19 -1837.56
-4691.7 4009.73 -1837.56
-3901.62 1840.5 -864.747
-5291.11 3283.72 -743.861
-3492.89 3286.65 -1837.56
-5291.11 2925.11 -1837.56
-4691.7 3286.65 -1837.56
-3172.8 5817.43 -1837.56
-1760.59 3399.65 -1837.56
-2028.98 5817.43 -146.87
-3878.9 5817.43 -1837.56
-701.438 5817.43 -1233.12
-348.387 5817.43 -1837.56
-701.438 5212.98 -1837.56
-348.387 5069.57 -1089.7
-4092.29 3648.19 -1837.56</DataArray>
            </Points>
            <CellData>
                <DataArray type="UInt64" Name="partition" format="ascii">
5
5
5
5
5
5
5
5
5
5
5
5
5
5
5
5
5
5
5
5
5
5
5
5
5
5
5
5
5
5
5
5
5
5
5
5
5
5
5
5
5
5
5
5
5
5
5
5
5
5
5
5
5
5
5
5
5
5
5
5
5
5
5
5
5
5
5
5
5
5
5
5
5
5
5
5
5
5
5
5
5
5
5
5
5
5
5
5
5
5
5
5
5
5
5
5
5
5
5
5
5
5
5
5
5
5
5
5
5
5
5
5
5
5
5
5
5
5
5
5
5
5
5
5
5
5
5
5
5
5
5
5
5
5
5
5
5
5
5
5
5
5
5
5
5
5
5
5
5
5
5
5
5
5
5
5
5
5
5
5
5
5
5
5
5
5
5
5
5
5
5
5
5
5
5
5
5
5
5
5
5
5
5
5
5
5
5
5
5
5
5
5
5
5
5
5
5
5
5
5
5
5
5
5
5
5
5
5
5
5
5
5
5
5
5
5
5
5
5
5
5
5
5
5
5
5
5
5
5
5
5
5
5
5
5
5
5
5
5
5
5
5
5
5
5
5
5
5
5
5
5
5
5
5
5
5
5
5
5
5
5
5
5
5
5
5
5
5
5
5
5
5
5
5
5
5
5
5
5
5
5
5
5
5
5
5
5
5
5
5
5
5
5
5
5
5
5
5
5
5
5
5
5
5
5
5
5
5
5
5
5
5
5
5
5
5
5
5
5
5
5
5
5
5
5
5
5
5
5
5
5
5
5
5
5
5
5
5
5
5
5
5
5
5
5
5
5
5
5
5
5
5
5
5
5
5
5
5
5
5
5
5
5
5
5
5
5
5
5
5
5
5
5
5
5
5
5
5
5
5
5
5
5
5
5
5
5
5
5
5
5
5
5
5
5
5
5
5
5
5
5
5
5
5
5
5
5
5
5
5
5
5
5
5
5
5
5
5
5
5
5
5
5
5
5
5
5
5
5
5
5
5
5
5
5
5
5
5
5
5
5
5
5
5
5
5
5
5
5
5
5
5
5
5
5
5
5
5
5
5
5
5
5
5
5
5
5
5
5
5
5
5
5
5
5
5
5
5
5
5
5
5
5
5
5
5
5
5
5
5
5
5
5
5
5
5
5
5
5
5
5
5
5
5
5
5
5
5
5
5
5
5
5
5
5
5
5
5
5
5
5
5
5
5
5
5
5
5
5
5
5
5
5
5
5
5
5
5
5
5
5
5
5
5
5
5
5
5
5
5
5
5
5
5
5
5
5
5
5
5
5
5
5
5
5
5
5
5
5
5
5
5
5
5
5
5
5
5
5
5
5
5
5
5
5
5
5
5
5
5
5
5
5
5
5
5
5
5
5
5
5
5
5
5
5
5
5
5
5
5
5
5
5
5
5
5
5
5
5
5
5
5
5
5
5
5
5
5
5
5
5
5
5
5
5
5
5
5
5
5
5
5
5
5
5
5
5
5
5
5
5
5
5
5
5
5
5
5
5
5
5
5
5
5
5
5
5
5
5
5
5
5
5
5
5
5
5
5
5
5
5
5
5
5
5
5
5
5
5
5
5
5
5
5
5
5
5
5
5
5
5
5
5
5
5
5
5
5
5
5
5
5
5
5
5
5
5
5
5
5
5
5
5
5
5
5
5
5
5
5
5
5
5
5
5
5
5
5
5
5
5
5
5
5
5
5
5
5
5
5
5
5
5
5
5
5
5
5
5
5
5
5
5
5
5
5
5
5
5
5
5
5
5
5
5
5
5
5
5
5
5
5
5
5
5
5
5
5
5
5
5
5
5
5
5
5
5
5
5
5
5
5
5
5
5
5
5
5
5
5
5
5
5
5
5
5
5
5
5
5
5
5
5
5
5
5
5
5
5
5
5
5
5
5
5
5
5
5
5
5
5
5
5
5
5
5
5
5
5
5
5
5
5
5
5
5
5
5
5
5
5
5
5
5
5
5
5
5
5
5
5
5
5
5
5
5
5
5
5
5
5
5
5
5
5
5
5
5
5
5
5
5
5
5
5
5
5
5
5
5
5
5
5
5
5
5
5
5
5
5
5
5
5
5
5
5
5
5
5
5
5
5
5
5
5
5
5
5
5
5
5
5
5
5
5
5
5
5
5
5
5
5
5
5
5
5
5
5
5
5
5
5
5
5
5
5
5
5
5
5
5
5
5
5
5
5
5
5
5
5
5
5
5
5
5
5
5
5
5
5
5
5
5
5
5
5
5
5
5
5
5
5
5
5
5
5
5
5
5
5
5
5
5
5
5
5
5
5
5
5
5
5
5
5
5
5
5
5
5
5
5
5
5
5
5
5
5
5
5
5
5
5
5
5
5
5
5
5
5
5
5
5
5
5
5
5
5
5
5
5
5
5
5
5
5
5
5
5
5
5
5
5
5
5
5
5
5
5
5
5
5
5
5
5
5
5
5
5
5
5
5
5
5
5
5
5
5
5
5
5
5
5
5
5
5
5
5
5
5
5
5
5
5
5
5
5
5
5
5
5
5
5
5
5
5
5
5
5
5
5
5
5
5
5
5
5
5
5
5
5
5
5
5
5
5
5
5
5
5
5
5
5
5
5
5
5
5
5
5
5
5
5
5
5
5
5
5
5
5
5
5
5
5
5
5
5
5
5
5
5
5
5
5
5
5
5
5
5
5
5
5
5
5
5
5
5
5
5
5
5
5
5
5
5
5
5
5
5
5
5
5
5
5
5
5
5
5
5
5
5
5
5
5
5
5
5
5
5
5
5
5
5
5
5
5
5
5
5
5
5
5
5
5
5
5
5
5
5
5
5
5
5
5
5
5
5
5
5
5
5
5
5
5
5
5
5
5
5
5
5
5
5
5
5
5
5
5
5
5
5
5
5
5
5
5
5
5
5
5
5
5
5
5
5
5
5
5
5
5
5
5
5
5
5
5
5
5
5
5
5
5
5
5
5
5
5
5
5
5
5
5
5
5
5
5
5
5
5
5
5
5
5
5
5
5
5
5
5
5
5
5
5
5
5
5
5
5
5
5
5
5
5
5
5
5
5
5
5
5
5
5
5
5
5
5
5
5
5
5
5
5
5
5
5
5
5
5
5
5
5
5
5
5
5
5
5
5
5
5
5
5
5
5
5
5
5
5
5
5
5
5
5
5
5
5
5
5
5
5
5
5
5
5
5
5
5
5
5
5
5
5
5
5
5
5
5
5
5
5
5
5
5
5
5
5
5
5
5
5
5
5
5
5
5
5
5
5
5
5
5
5
5
5
5
5
5
5
5
5
5
5
5
5
5
5
5
5
5
5
5
5
5
5
5
5
5
5
5
5
5
5
5
5
5
5
5
5
5
5
5
5
5
5
5
5
5
5
5
5
5
5
5
5
5
5
5
5
5
5
5
5
5
5
5
5
5
5
5
5
5
5
5
5
5
5
5
5
5
5
5
5
5
5
5
5
5
5
5
5
5
5
5
5
5
5
5
5
5
5
5
5
5
5
5
5
5
5
5
5
5
5
5
5
5
5
5
5
5
5
5
5
5
5
5
5
5
5
5
5
5
5
5
5
5
5
5
5
5
5
5
5
5
5
5
5
5
5
5
5
5
5
5
5
5
5
5
5
5
5
5
5
5
5
5
5
5
5
5
5
5
5
5
5
5
5
5
5
5
5
5
5
5
5
5
5
5
5
5
5
5
5
5</DataArray>
                <DataArray type="UInt64" Name="region" format="ascii">
0
0
0
0
0
0
0
0
0
0
0
0
0
0
0
0
0
0
0
0
0
0
0
0
0
0
0
0
0
0
0
0
0
0
0
0
0
0
0
0
0
0
0
0
0
0
0
0
0
0
0
0
0
0
0
0
0
0
0
0
0
0
0
0
0
0
0
0
0
0
0
0
0
0
0
0
0
0
0
0
0
0
0
0
0
0
0
0
0
0
0
0
0
0
0
0
0
0
0
0
0
0
0
0
0
0
0
0
0
0
0
0
0
0
0
0
0
0
0
0
0
0
0
0
0
0
0
0
0
0
0
0
0
0
0
0
0
0
0
0
0
0
0
0
0
0
0
0
0
0
0
0
0
0
0
0
0
0
0
0
0
0
0
0
0
0
0
0
0
0
0
0
0
0
0
0
0
0
0
0
0
0
0
0
0
0
0
0
0
0
0
0
0
0
0
0
0
0
0
0
0
0
0
0
0
1
1
1
1
1
1
1
1
1
1
1
1
1
1
1
1
1
1
1
1
1
1
1
1
1
1
1
1
1
1
1
1
1
1
1
1
1
1
1
1
1
1
1
1
1
1
1
1
1
1
1
1
1
1
1
1
1
1
1
1
1
1
1
1
1
1
1
1
1
1
1
1
1
1
1
1
1
1
1
1
1
1
1
1
1
1
1
1
1
1
1
1
1
1
1
1
1
1
1
1
1
1
1
1
1
1
1
1
1
1
1
1
1
1
1
1
1
1
1
1
1
1
1
1
1
1
1
1
1
1
1
1
1
1
1
1
1
1
1
1
1
1
1
1
1
1
1
1
1
1
1
1
1
1
1
1
1
1
1
1
1
1
1
1
1
1
1
1
1
1
1
1
1
1
1
1
1
1
1
1
1
1
1
1
1
1
1
1
1
1
1
1
1
1
1
1
1
1
1
1
1
1
1
1
1
1
1
1
1
1
1
1
1
1
1
1
1
1
1
1
1
1
1
1
1
1
1
1
1
1
1
1
1
1
1
1
1
1
1
1
1
1
1
1
1
1
1
1
1
1
1
1
1
1
1
1
1
1
1
1
1
1
1
1
1
1
1
1
1
1
1
1
1
1
1
1
1
1
1
1
1
1
1
1
1
1
1
1
1
1
1
1
1
1
1
1
1
1
1
1
1
1
1
1
1
1
1
1
1
1
1
1
1
1
1
1
1
1
1
1
1
1
1
1
1
1
1
1
1
1
1
1
1
1
1
1
1
1
1
1
1
1
1
1
1
1
1
1
1
1
1
1
1
1
1
1
1
1
1
1
1
1
1
1
1
1
1
1
1
1
1
1
1
1
1
1
1
1
1
1
1
1
1
1
1
1
1
1
1
1
1
1
1
1
1
1
1
1
1
1
1
1
1
1
1
1
1
1
1
1
1
1
1
1
1
1
1
1
1
1
1
1
1
1
1
1
1
1
1
1
1
1
1
1
1
1
1
1
1
1
1
1
1
2
2
2
2
2
2
2
2
2
2
2
2
2
2
2
2
2
2
2
2
2
2
2
2
2
2
2
2
2
2
2
2
2
2
2
2
2
2
2
2
2
2
2
2
2
2
2
2
2
2
2
2
2
2
2
2
2
2
2
2
2
2
2
2
2
2
2
2
2
2
2
2
2
2
2
2
2
2
2
2
2
2
2
2
2
2
2
2
2
2
2
2
2
2
2
2
2
2
2
2
2
2
2
2
2
2
2
2
2
2
2
2
2
2
2
2
2
2
2
2
2
2
2
2
2
2
2
2
2
2
2
2
2
2
2
2
2
2
2
2
2
2
2
2
2
2
2
2
2
2
2
2
2
2
2
2
2
2
2
2
2
2
2
2
2
2
2
2
2
2
2
2
2
2
2
2
2
2
2
2
2
2
2
2
2
2
2
2
2
2
2
2
2
2
2
2
2
2
2
2
2
2
2
2
2
2
2
2
2
2
2
2
2
2
2
2
2
2
2
2
2
2
2
2
2
3
3
3
3
3
3
3
3
3
3
3
3
3
3
3
3
3
3
3
3
3
3
3
3
3
3
3
3
3
3
3
3
3
3
3
3
3
3
3
3
3
3
3
3
3
3
3
3
3
3
3
3
3
3
3
3
3
3
3
3
3
3
3
3
3
3
3
3
3
3
3
3
3
3
3
3
3
3
3
3
3
3
3
3
3
3
3
3
3
3
3
3
3
3
3
3
3
3
3
3
3
3
3
3
3
3
3
3
3
3
3
3
3
3
3
3
3
3
3
3
3
3
3
3
3
3
3
3
3
3
3
3
3
3
3
3
3
3
3
3
3
3
3
3
3
3
3
3
3
3
3
3
3
3
3
3
3
3
3
3
3
3
3
3
3
3
3
3
3
3
3
3
3
3
3
3
3
3
3
3
3
3
3
3
3
3
3
3
3
3
3
3
3
3
3
3
3
3
3
3
3
3
3
3
3
3
3
3
3
3
3
3
3
3
3
3
3
3
3
3
3
3
3
3
3
3
3
3
3
3
3
3
3
3
3
3
3
3
3
3
3
3
3
3
3
3
3
3
3
3
3
3
3
3
3
3
3
3
3
3
3
3
3
3
3
3
3
3
3
3
3
3
3
3
3
3
3
3
3
3
3
3
3
3
3
3
3
3
3
3
3
3
3
3
3
3
3
3
3
3
3
3
3
3
3
3
3
3
3
3
3
3
3
3
3
3
3
3
3
3
3
3
3
3
3
3
3
3
3
3
3
3
3
3
3
3
3
3
3
3
3
3
3
3
3
3
3
3
3
3
3
3
3
3
3
3
3
3
3
3
3
3
3
3
3
3
3
3
3
3
3
3
3
3
3
3
3
3
3
3
3
3
3
3
3
3
3
3
3
3
3
3
3
3
3
3
3
3
3
3
3
3
3
3
3
3
3
3
3
3
3
3
3
3
3
3
3
3
3
3
3
3
3
3
3
3
3
3
3
3
3
3
3
3
3
3
3
3
3
3
3
3
3
3
3
3
3
3
3
3
3
3
3
3
3
3
3
3
3
3
3
3
3
3
3
3
3
3
3
3
3
3
3
3
3
3
3
3
3
3
3
3
3
3
3
3
3
3
3
3
3
3
3
3
3
3
3
3
3
3
3
4
4
4
4
4
4
4
4
4
4
4
5
5
5
5
5
5
5
5
5
5
5
5
6
6
6
6
6
6
6
6
6
6
6
6
6
6
6
6
6
6
6
6
6
6
6
6
6
6
6
6
6
6
6
6
6
6
6
6
6
6
6
6
6
7
7
7
7
7
7
7
7
7
7
7
7
7
7
7
7
7
7
7
7
7
7
7
7
7
7
7
7
7
7
7
7
7
7
7
7
7
7
7
7
7
7
7
7
7
7
7
7
7
7
7
7
7
7
7
7
7
7
7
7
7
7
12
12
12
12
12
12
12
12
12
12
12
12
12
12
12
12
12
12
12
12
12
12
12
12
12
12
12
12
12
12
12
12
12
12
12
13
13
13
13
13
13
13
13
13
13
14
14
14
14
14
14
14
14
15
15
15
15
15
15
15
15
15
15
15
15
15
15
15
15
15
20
20
20
20
20
20
20
20
20
20
20
20
20
20
20
20
20
20
20
20
20
20
20
20
20
20
20
20
20
20
20
20
20
20
20
20
20
20
20
20
20
20
20
20
20
20
20
20
20
20
20
20
20
20
20
20
20
20
20
20
20
20</DataArray>
                <DataArray type="UInt64" Name="original_index" format="ascii">
3
4
8
15
18
25
29
30
35
36
39
46
47
50
52
54
56
62
66
76
80
100
101
113
121
135
141
160
184
211
223
229
232
241
249
257
265
268
288
332
347
348
355
357
370
373
394
403
407
413
415
416
418
419
420
422
423
424
425
426
431
432
434
437
438
439
440
441
442
443
444
445
446
447
448
449
450
451
453
454
460
461
462
463
464
465
467
468
473
474
475
476
479
480
481
483
485
486
487
488
490
492
494
496
497
501
504
505
507
508
509
510
513
514
515
516
517
519
521
522
524
525
526
527
528
529
530
531
537
538
539
540
552
556
558
561
562
563
565
566
568
573
574
575
576
578
579
580
581
583
584
585
587
598
600
610
622
623
625
626
628
629
630
635
636
637
639
641
642
644
645
646
648
649
651
652
654
655
656
657
661
662
663
664
665
666
667
668
669
673
674
675
676
679
680
681
682
902
903
904
905
906
909
912
914
2071
2072
2074
2077
2088
2091
2104
2105
2130
2134
2146
2157
2161
2162
2164
2186
2187
2191
2214
2216
2221
2229
2230
2249
2261
2282
2286
2288
2298
2299
2309
2316
2342
2358
2416
2419
2425
2446
2453
2454
2461
2470
2495
2520
2533
2538
2552
2595
2599
2613
2614
2637
2641
2651
2665
2669
2673
2705
2717
2723
2742
2748
2752
2765
2770
2790
2809
2819
2835
2836
2856
2869
2874
2882
2903
2904
2905
2907
2908
2918
2919
2928
2930
2932
2934
2939
2942
2944
2956
2964
2969
2985
2995
3002
3006
3026
3032
3047
3050
3051
3052
3054
3058
3060
3070
3071
3081
3083
3091
3094
3109
3116
3150
3165
3172
3186
3199
3204
3207
3215
3221
3222
3224
3227
3229
3230
3249
3256
3275
3277
3283
3287
3312
3317
3321
3339
3344
3352
3359
3360
3367
3371
3385
3387
3391
3399
3403
3419
3423
3429
3435
3437
3438
3439
3446
3459
3465
3469
3485
3486
3499
3538
3550
3576
3578
3585
3589
3617
3618
3624
3635
3639
3651
3657
3668
3670
3671
3677
3680
3685
3687
3693
3704
3709
3725
3731
3760
3762
3767
3770
3778
3779
3786
3811
3836
3841
3852
3873
3892
3895
3901
3947
3948
3965
3970
4018
4020
4022
4024
4060
4069
4108
4112
4125
4143
4159
4175
4204
4208
4210
4218
4240
4246
4249
4251
4252
4256
4257
4259
4268
4269
4272
4274
4275
4280
4285
4315
4319
4321
4340
4356
4359
4360
4376
4377
4383
4390
4400
4421
4434
4439
4465
4474
4484
4489
4491
4499
4501
4508
4522
4539
4553
4555
4563
4572
4579
4586
4602
4637
4646
4648
4653
4661
4665
4679
4717
4733
4735
4749
4754
4762
4763
4782
4801
4811
4833
4834
4835
4844
4854
4858
4865
4918
4927
4932
4937
4949
4959
4965
4994
5001
5003
5019
5020
5034
5035
5049
5054
5055
5056
5057
5061
5068
5087
5088
5092
5114
5131
5138
5141
5154
5161
5180
5181
5194
5200
5204
5207
5218
5220
5245
5257
5262
5281
5290
5292
5306
5313
5319
5324
5329
5331
5344
5362
5379
5381
5397
5402
5410
5432
5438
5476
5485
5487
5497
5506
5510
5532
5554
5555
5572
5584
5589
5597
5602
5603
5610
5616
5634
5650
5651
5653
5674
5687
5698
5709
5713
5732
5733
5736
5744
5747
5750
5766
5767
5773
5822
5823
5835
5840
5845
5846
5852
5873
5878
5893
5895
5912
5918
5927
5933
5935
5946
5959
5983
5992
6009
6031
6032
6049
6066
6078
6088
6102
6125
6155
6156
6171
6200
6211
6217
6220
6224
6237
6241
6244
6261
6264
6291
6292
6293
6294
6295
6296
6313
6318
6322
6343
6344
6346
6347
6349
6381
6402
6409
6414
6417
6422
6424
6428
6429
6431
6435
6438
6439
6441
6443
6446
6448
6450
6454
6456
6460
6461
6464
6465
6467
6473
6490
6491
6495
6496
6497
6504
6507
6522
6535
6562
6571
6578
6599
6601
6602
6607
6621
6624
6625
6627
6633
6636
6645
6666
6680
6690
6714
6764
6769
6771
6781
6785
6790
6801
6804
6809
6810
6813
6816
6818
6827
6828
6829
6830
6831
6832
6834
6835
6838
6839
6840
6847
6849
6851
6852
6854
6855
6862
6863
6865
6866
6871
6877
6882
6883
6884
6889
6893
6895
6897
6904
6905
6911
6915
6916
6918
6919
6921
6922
6925
6926
6930
6931
6934
6936
6941
6943
6946
6947
6950
6951
6952
6953
6954
6955
6956
6957
6962
6964
6965
6966
6967
6968
6969
6970
6971
6972
6973
6974
6976
6977
6978
6980
6981
6982
6983
6991
6992
6993
7006
7023
7035
7054
7060
7062
7063
7065
7066
7068
7076
7079
7081
7085
7089
7092
7093
7094
7095
7096
7097
7098
7099
7100
7101
7102
7103
7104
7105
7106
7108
7109
7110
7111
7112
7113
7114
7115
7116
7117
7118
7119
7120
7121
7122
7125
7132
7137
7140
7141
7142
7144
7145
7147
7148
7163
7255
7262
7294
7296
7297
7298
7299
7300
7301
7303
7304
7306
7307
7308
7310
7311
7312
7313
7314
7315
7316
7317
7318
7319
7320
8478
8492
8499
8529
8534
8558
8562
8568
8583
8584
8587
8597
8607
8609
8618
8625
8629
8630
8644
8650
8659
8663
8670
8684
8690
8693
8706
8707
8708
8709
8719
8721
8755
8774
8780
8802
8810
8818
8825
8864
8869
8884
8960
8986
9031
9035
9036
9037
9055
9071
9098
9107
9130
9133
9135
9136
9140
9145
9147
9152
9154
9169
9185
9187
9189
9196
9207
9228
9229
9251
9253
9256
9258
9260
9261
9263
9266
9287
9292
9297
9300
9310
9322
9331
9342
9345
9348
9366
9371
9372
9395
9396
9399
9406
9421
9457
9464
9473
9477
9498
9518
9522
9529
9542
9559
9563
9564
9569
9578
9593
9594
9601
9606
9609
9621
9623
9630
9636
9639
9641
9645
9655
9660
9672
9684
9697
9701
9713
9723
9737
9742
9748
9756
9757
9764
9767
9769
9770
9786
9806
9808
9810
9814
9818
9834
9840
9841
9842
9851
9858
9862
9863
9864
9866
9897
9903
9905
9908
9912
9920
9923
9939
9954
9969
9971
9973
9978
9982
10011
10026
10038
10049
10055
10057
10072
10074
10085
10087
10089
10095
10096
10104
10118
10121
10122
10128
10129
10130
10135
10144
10153
10154
10156
10160
10161
10166
10182
10188
10202
10212
10220
10227
10233
10238
10256
10266
10267
10268
10275
10292
10324
10336
10338
10340
10351
10353
10355
10356
10360
10362
10373
10382
10393
10406
10410
10414
10416
10420
10423
10425
10429
10433
10440
10449
10460
10464
10493
10494
10513
10519
10526
10537
10550
10567
10591
10615
10623
10632
10638
10641
10648
10649
10650
10655
10666
10687
10728
10731
10751
10764
10783
10787
10816
10817
10858
10866
10916
10937
10944
10961
10970
10987
10994
10997
11007
11022
11047
11090
11091
11093
11115
11163
11165
11170
11181
11215
11218
11222
11230
11287
11288
11308
11311
11314
11318
11320
11322
11340
11346
11348
11350
11362
11378
11386
11403
11416
11418
11428
11431
11432
11442
11449
11477
11511
11513
11548
11567
11569
11582
11586
11601
11603
11633
11641
11654
11672
11698
11701
11702
11710
11711
11736
11743
11745
11748
11749
11759
11762
11766
11781
11785
11797
11803
11814
11819
11820
11827
11835
11841
11880
11904
11909
11929
11930
11965
11978
11986
12015
12048
12051
12058
12060
12083
12130
12145
12172
12196
12198
12219
12230
12239
12245
12253
12257
12264
12273
12296
12301
12306
12308
12329
12331
12332
12334
12342
12348
12355
12365
12367
12370
12389
12393
12398
12400
12401
12414
12417
12424
12426
12433
12439
12443
12456
12470
12487
12507
12547
12562
12566
12584
12589
12592
12694
12710
12714
12745
12752
12753
12772
12784
12790
12807
12810
12834
12842
12854
12864
12907
12911
12934
12935
12938
12948
12962
12977
12983
12994
12999
13009
13044
13045
13056
13063
13067
13079
13083
13126
13137
13143
13152
13153
13155
13222
13235
13310
13311
13312
13313
13317
13318
13425
13426
13427
13428
13474
13479
13480
13481
13482
13484
13485
13487
2092
2093
2094
2095
2096
2102
2103
2108
2109
2110
2112
2113
2114
2116
2117
2118
2119
2120
2121
2122
2123
2124
2125
2126
2127
2128
2129
2130
2131
2185
2187
2188
2189
2190
2191
2192
2193
2194
2195
2196
2255
2256
2257
2258
2259
2260
2261
2262
2263
2264
2265
2266
2268
2269
2270
2271
2317
2326
2327
2338
2355
2356
2360
2364
2367
2377
2386
2389
2390
2392
2394
2397
2399
2400
2402
2403
2404
2405
2406
2407
2408
2409
2410
2411
2412
2413
2414
2415
2416
2417
2418
2419
2420
2763
2797
2798
2799
2800
2801
2808
2809
2810
2811
2812
2813
2814
2815
2859
2860
2863
2864
2865
2866
2867
2868
2869
2871
3040
3041
3042
3043
3044
3045
3046
3047
3048
3049
3050
3051
3052
3053
3054
3055
3056
3057
3058
3059
3060
3061
3062
3063
3064
3065
3066
3067
3068
3069
3070
3071
3072
3073
3074
3075
3076
3077
3497
3500
3503
3504
3507
3510
3515
3516
3517
3518
3519
3520
3521
3522
3523
3524
3525
3526
3528
3529
3530
3531
3532
3533
3534
3535
3536
3537
3538
3539
3540
3541
3542
3543
3546
3568
3569
3586
3587
3588
3589
3590
3591
3592
3593
3594
3595
3596
3597
3598
3599
3600
3601
3625
3626
3631
3632
3633
3657
3658
3659
3661
3662
3663
3664
3665
3666
3667
3668
3669
3876
3877
3878
3879
3880
3882
3883
3886
4211
4212
4213
4214
4215
4216
4217
4218
4219
4220
4261
4262
4271
4273
4274
4275
4276
4277
4278
4279
4280
4281
4282
4364
4366
4367
4368
4369
4370
4371
4372
4373
4374
4375
4376
4377
4378
4543
4546
4547
4548
4549
4550
4551
4552
4553
4554
4555
4556
4557
4558
4559
4560
4561</DataArray>
            </CellData>
            <Cells>
                <DataArray type="UInt64" Name="connectivity" format="ascii">
0 1 2 3 
4 5 6 7 
8 9 1 10 
11 12 13 14 
9 15 16 17 
18 19 13 14 
1 10 2 3 
19 11 13 14 
20 21 22 7 
23 24 25 15 
23 25 26 18 
27 28 29 30 
31 32 20 33 
34 35 36 37 
21 38 22 37 
39 40 41 42 
8 1 43 10 
44 45 46 47 
41 48 42 49 
50 9 16 17 
51 41 42 49 
38 21 22 52 
21 38 37 53 
54 18 14 16 
55 56 7 57 
58 45 44 47 
59 38 51 37 
29 28 60 30 
4 34 36 37 
24 61 62 63 
21 20 22 52 
58 45 47 64 
16 54 17 36 
54 14 6 36 
55 56 57 65 
45 24 23 66 
67 27 29 30 
9 8 63 10 
50 9 68 16 
56 11 69 70 
28 19 29 60 
4 21 22 37 
71 58 67 72 
18 25 14 16 
28 26 19 13 
56 55 5 65 
26 18 19 13 
45 58 44 72 
11 56 12 5 
73 74 8 75 
74 73 8 61 
25 68 15 16 
12 18 13 14 
8 74 63 10 
55 12 5 7 
15 9 63 10 
32 55 7 33 
8 74 61 63 
76 74 77 75 
74 73 77 75 
61 24 15 63 
9 50 1 2 
11 19 13 60 
11 13 69 60 
78 79 80 81 
73 82 61 62 
74 73 61 62 
46 82 62 66 
80 0 2 3 
61 24 62 66 
82 61 62 66 
45 46 47 66 
24 45 47 66 
47 46 62 66 
24 47 62 66 
61 74 62 63 
58 67 72 29 
32 83 55 33 
45 58 72 64 
9 50 2 17 
19 28 13 60 
23 9 66 15 
24 23 66 15 
23 25 68 15 
9 23 68 15 
50 84 17 85 
9 61 66 15 
61 24 66 15 
8 43 86 10 
74 8 86 10 
8 61 9 63 
9 61 15 63 
24 23 25 64 
56 12 55 7 
43 1 0 3 
38 21 52 53 
75 8 43 86 
76 74 75 86 
24 45 23 64 
74 8 75 86 
55 83 57 33 
25 23 68 18 
20 32 7 33 
9 1 10 2 
12 56 55 5 
56 11 12 13 
44 58 71 72 
45 24 47 64 
56 11 13 69 
4 22 6 34 
25 23 26 64 
50 84 2 17 
56 11 70 65 
71 67 27 72 
13 28 69 60 
25 26 19 64 
23 45 26 64 
25 26 18 19 
69 11 60 70 
45 72 26 64 
58 72 64 29 
27 28 72 29 
67 27 72 29 
72 28 26 29 
26 28 19 29 
26 19 64 29 
72 26 64 29 
35 34 36 85 
11 56 5 65 
34 35 59 85 
18 25 19 14 
15 9 2 17 
83 87 57 33 
88 59 51 41 
7 55 57 33 
83 55 57 65 
11 12 14 5 
31 87 32 33 
34 38 59 37 
22 4 6 7 
5 12 6 7 
18 54 14 6 
12 18 14 6 
14 4 5 6 
12 14 5 6 
35 34 59 37 
4 55 5 7 
1 43 10 3 
68 25 18 16 
34 54 36 85 
55 4 21 7 
21 4 22 7 
84 78 2 17 
32 87 83 33 
59 51 41 42 
35 59 51 37 
41 89 48 49 
1 84 0 2 
14 54 16 36 
48 39 42 81 
1 50 84 2 
38 88 59 51 
0 84 80 2 
35 40 59 85 
54 50 16 17 
84 40 79 78 
15 9 10 2 
54 68 18 16 
43 86 10 3 
84 78 80 2 
0 84 79 80 
79 84 78 80 
14 4 6 36 
68 9 15 16 
54 50 68 16 
22 38 34 37 
6 4 34 36 
54 6 34 36 
4 22 34 37 
59 35 51 42 
39 41 48 42 
38 51 37 53 
54 50 17 85 
40 35 78 85 
84 40 78 85 
17 35 36 85 
54 17 36 85 
78 35 17 85 
84 78 17 85 
40 35 59 42 
40 59 41 42 
35 40 78 42 
89 39 41 48 
79 40 39 81 
39 40 42 81 
40 78 42 81 
40 79 78 81 
32 20 7 90 
55 32 7 90 
21 55 7 90 
20 21 7 90 
21 20 52 90 
32 31 20 90 
20 91 52 90 
20 31 91 90 
92 93 94 95 
96 97 98 99 
10 15 2 100 
86 10 3 101 
102 103 104 105 
78 80 106 107 
108 100 109 110 
37 111 112 113 
114 115 116 117 
17 2 15 118 
119 120 112 121 
122 123 124 125 
4 14 5 126 
35 42 78 127 
126 102 104 105 
128 101 129 110 
30 29 67 125 
76 86 130 131 
132 133 134 135 
111 37 112 136 
137 138 93 139 
140 141 142 122 
49 42 51 143 
144 145 146 121 
147 19 148 139 
149 150 128 110 
10 2 106 100 
99 151 137 124 
152 141 124 103 
47 24 93 139 
21 53 37 112 
58 64 47 138 
112 153 121 136 
146 119 112 121 
112 153 126 104 
145 120 146 121 
154 134 155 135 
140 151 99 124 
156 153 104 157 
158 159 103 104 
14 25 147 118 
112 160 113 161 
19 14 147 162 
144 153 127 121 
2 106 100 163 
5 4 126 102 
129 101 100 110 
147 158 103 104 
153 163 127 136 
160 112 164 161 
100 15 95 131 
4 36 14 126 
165 128 166 110 
111 167 143 121 
97 98 99 109 
51 42 127 143 
74 63 10 131 
168 169 170 171 
159 172 173 102 
174 175 176 143 
177 162 103 105 
24 15 95 139 
5 65 102 105 
101 128 130 178 
126 5 102 105 
4 126 102 161 
51 42 35 127 
172 169 171 117 
107 154 163 127 
149 165 166 110 
179 67 58 29 
98 180 181 109 
98 96 99 181 
86 101 130 131 
101 10 100 131 