<?xml version="1.0" encoding="UTF-8"?>
<VTKFile type="UnstructuredGrid" version="0.1" byte_order="LittleEndian">
    <UnstructuredGrid>
        <Piece NumberOfPoints="369" NumberOfCells="1677">
            <PointData>
                <DataArray type="UInt64" Name="original_index" format="ascii" NumberOfComponents="1">
100
684
418
683
130
131
31
713
594
550
551
875
711
382
383
29
826
827
444
499
748
476
747
916
549
874
447
446
774
443
772
380
746
712
379
709
26
710
27
28
773
477
419
685
101
498
873
825
381
915
804
529
501
828
854
898
574
855
803
502
74
417
99
72
384
30
500
934
445
872
548
802
771
593
682
127
128
126
73
530
129
71
98
1
10
2351
2312
2358
2376
1693
1724
2208
2410
1829
1830
1855
2216
2249
2458
2412
2058
2010
2359
2423
2318
1895
1896
265
2360
2242
2309
2183
2384
2437
1893
1956
2374
373
1723
1933
1988
2041
2270
2251
1955
2009
1856
1989
2390
2445
2446
2274
1932
1954
2237
260
1891
2408
1833
1832
1858
1839
264
1842
1694
2411
1828
1854
1831
1841
1894
1857
2389
2373
1958
1957
1837
1692
97
2386
1838
263
2011
95
1840
1836
96
1713
1892
261
2287
1721
1722
2406
371
262
372
1931
11
2012
999
1244
950
1245
1063
1001
1000
174
997
998
1061
1062
1210
1120
1065
1119
1246
1170
1211
1169
1064
1118
1168
1116
1115
1208
1165
1209
179
1121
1066
1166
1002
175
176
1004
1167
1060
1059
180
173
1003
181
1164
1117
996
1114
177
172
182
178
12
1598
1635
2673
2675
1865
2605
2509
1471
2644
2655
346
1763
347
1443
2787
1554
2801
2815
1411
1410
312
2616
2522
2586
2595
2624
1527
1473
1528
2477
2601
2610
2808
1576
1618
2684
2706
2528
1469
2602
351
306
1447
2725
2638
2860
2633
1575
1502
2599
2603
2508
1444
2790
1472
1442
2559
1500
1552
1553
2549
1728
1650
1615
1524
1523
1599
1555
2695
1651
1617
1652
2575
1408
1409
2791
1726
1727
1765
1764
1446
350
1470
2768
1725
200
349
1499
2762
2656
2533
2654
1572
1729
1867
1445
2714
2592
1526
1869
1407
2672
309
1866
1597
2663
2756
1616
2637
1525
995
1573
2765
1503
1864
310
1405
1868
1529
1406
1468
1474
311
16
1634
1762
1574
1501
1596
1212
308
307
1649
348
1614
1667
2496</DataArray>
            </PointData>
            <Points>
                <DataArray type="Float64" Name="Points" format="ascii" NumberOfComponents="3">
8845.83 -3582.59 749.86
8495.72 -2980.9 823.251
9196.99 -2980.87 880.787
9196.82 -2980.89 680.821
10949.3 -2136.43 324.127
10949.3 -2859.51 323.624
10949.3 -2859.51 523.624
10362 -2498.06 444.092
8017.76 -328.549 1146.78
8603.78 33.1708 1021.35
8604.3 -690.487 1024.43
8604.3 -690.491 824.446
10362.7 -1051.98 449.092
10362.7 -1051.98 649.091
10362.3 -1775.06 646.277
10949.3 -1413.35 525.144
9189.63 394.87 695.078
9190.54 -328.765 700.049
9776.61 32.9493 774.78
9189.63 394.875 895.037
8146.58 -2379.25 901.513
8847.43 -2379.17 956.715
8847.22 -2379.21 756.757
8015.69 394.883 936.755
8601.52 756.586 1010.33
8603.76 33.167 821.282
9775.16 -2136.69 766.517
9775.95 -1413.7 771.053
9775.95 -1413.7 571.05
9775.71 756.458 769.467
9776.6 32.9449 574.746
10362.8 394.535 649.578
9547.88 -2379.2 612.151
10362.3 -1775.07 446.278
10362.2 1117.81 645.089
10362.8 394.531 449.671
10949.3 755.885 525.304
10362.9 -328.781 450.867
10949.3 32.8062 526.411
10949.3 -690.274 526.137
9776.63 -690.491 574.962
8146.85 -2379.21 1101.47
8495.96 -2980.88 1023.2
7794.45 -2980.91 964.868
8144.41 -3582.59 890.677
9187.67 1118.17 885.116
8601.52 756.584 810.355
9187.7 1118.17 685.265
10363 -328.781 650.87
8012.58 1117.95 922.452
7798.18 -1777.69 983.645
8498.73 -1777.53 1036.92
9190.09 -1052.21 897.946
9190.09 -1052.21 697.949
8149.8 -1176.01 917.746
7799.98 -574.457 993.57
8150.08 -1175.93 1117.7
7449.43 -1176.18 1064.62
8498.49 -1777.59 836.969
9188.85 -1775.32 891.666
8144.67 -3582.59 1090.57
9897.91 -2980.87 737.872
9547.04 -3582.59 608.008
9547.18 -3582.59 807.998
10362 -2498.06 644.093
10949.3 -2136.43 524.128
9190.54 -328.763 900.035
7447.97 27.0184 1059.27
9776.63 -690.493 774.952
8599.3 1479.58 800.027
8599.17 1479.58 999.368
9198.6 -1777.53 689.603
9775.69 756.451 569.382
8015.7 394.884 1136.8
9897.81 -2980.89 537.888
10949.3 32.8058 326.409
10949.3 -690.274 326.138
10949.3 755.885 325.327
8846.03 -3582.59 949.812
7798.49 -1777.63 1183.59
10949.3 -1413.35 325.155
10248.2 -3582.59 665.616
10248.1 -3582.59 465.629
10949.3 -3582.59 523.343
10949.3 -3582.59 323.343
9306.3 38.3118 1637.07
10131.9 397.248 1533.58
9462.64 956.37 2386.47
9341.71 32.8001 2569.58
9315.9 -3582.59 1468.69
9786.18 -3582.59 1987.18
9724.41 -2606.47 1677.24
9389.84 -3008.96 2174.55
10949.3 395.263 1125.26
10949.3 -328.961 1125.68
10949.3 33.4964 1724.53
10137 -2732.83 2434.88
10113.3 -1776.21 1581.14
10111.9 -2058.05 2644.53
9150.5 -2077.92 1612.69
8551.63 -690.278 3247.13
9151.04 -1051.82 3247.13
8124.85 -1570.14 2583.75
8888.18 -570.583 2582.05
8220.51 42.3116 1762.43
10349.9 394.339 3247.13
10349.9 1117.42 3247.13
10949.3 755.879 3247.13
10233.8 755.879 2531.7
9387.94 -1490 2072.85
10205.2 -1413.36 2369.59
9879.16 -328.739 2115.06
9566.85 -896.975 2529.16
10143.6 58.6746 2652.48
10349.9 -1051.82 3247.13
9750.45 -690.278 3247.13
10304.3 -690.278 2602.18
10243.2 -3582.59 3247.13
9890.11 -3582.59 2642.68
9890.11 -2978.15 3247.13
8124.85 -2373.7 3247.13
8477.9 -1769.26 3247.13
8813.22 -1921.06 2497.92
10227.1 -521.938 1418
9750.45 -1413.36 3247.13
9151.04 -1774.9 3247.13
10949.3 -691.324 1724.59
8830.95 -2373.7 3247.13
9347.98 -2477.04 2660.91
8724.56 -1133.88 1718.33
9486.82 -692.418 1503.63
8149.81 -758.069 2188.42
9184.01 -2978.15 3247.13
9750.45 -2136.44 3247.13
8698.41 -2583.72 2003.44
10949.3 -2859.51 3247.13
10349.9 -2497.97 3247.13
10302.9 -2788.19 1296.2
10949.3 -2498.39 1123.28
10949.3 -1775.74 1124.04
10949.3 -2137.69 1723.2
10949.3 -1774.9 2647.72
10949.3 32.8001 3247.13
10949.3 394.339 2647.72
8613.75 -3582.59 1610.15
10163.3 -3062.37 1871.96
10949.3 1119.33 1123.56
10949.3 758.707 1723.52
10949.3 -1052.64 1125.05
10949.3 -328.739 2647.72
10349.9 -328.739 3247.13
10949.3 -1415.02 1723.95
8065.51 -2121.58 1852.44
9124.42 780.742 1571.23
9750.45 755.879 3247.13
9750.45 32.8001 3247.13
10949.3 -2970.97 1544.76
10017.5 -3582.59 1326.49
10949.3 -3582.59 1204.29
9702.08 1123.92 1364.31
10949.3 -2497.97 2647.72
10949.3 -690.278 3247.13
9151.04 -328.739 3247.13
10949.3 -3582.59 2566.18
10949.3 -1051.82 2647.72
10949.3 -2970.97 2225.71
10949.3 -3582.59 1885.24
10337.6 -3582.59 2225.71
10349.9 -1774.9 3247.13
10949.3 -2136.44 3247.13
8753.17 412.359 2132.56
8477.9 -3582.59 2642.68
9184.01 -3582.59 2642.68
8830.95 -2964.92 2629.46
8830.95 -3582.59 3247.13
10949.3 -1413.36 3247.13
9537.06 -3582.59 3247.13
8477.9 -2978.15 3247.13
10949.3 -3582.59 3247.13
9151.04 394.339 3247.13
10362.3 -1775.07 -353.722
7426.26 756.201 246.424
7426.26 756.201 1046.42
7429.8 33.1695 262.839
9775.16 -2136.69 -233.484
9897.81 -2980.89 -262.113
10362 -2498.06 -355.908
10949.3 -690.274 -473.862
10362.9 -328.781 -349.133
10362.7 -1051.98 -350.908
9776.63 -690.491 -225.038
9775.95 -1413.7 -228.95
8017.78 -328.553 146.9
7798.2 -1777.69 183.642
8146.59 -2379.25 101.51
8498.5 -1777.59 36.9661
6745.92 26.7572 398.189
6748.26 -1176.39 408.044
7098.88 -574.667 337.318
7449.45 -1176.18 264.612
8847.23 -2379.21 -43.245
9188.85 -1775.32 -108.337
8149.82 -1176.01 117.743
9190.54 -328.765 -99.9516
9189.63 394.87 -104.922
8012.58 1117.95 122.452
8601.52 756.584 10.3549
8015.69 394.883 136.755
9547.05 -3582.59 -191.994
7097.41 -1777.84 328.387
7445.67 -2379.32 245.053
8603.76 33.167 21.2817
9196.83 -2980.89 -119.181
10949.3 -1413.35 -474.845
10949.3 -2136.43 -475.873
7794.47 -2980.91 164.865
8604.3 -690.491 24.4459
9776.6 32.9449 -225.254
9775.69 756.451 -230.618
8845.84 -3582.59 -50.1423
10949.3 32.8058 -473.591
8495.73 -2980.9 23.2479
8144.43 -3582.59 90.6742
8599.3 1479.58 0.026748
9190.09 -1052.21 -102.05
10362.8 394.531 -350.329
9187.7 1118.17 -114.735
10949.3 -2859.51 -476.376
10949.3 755.885 -474.674
7442.65 -3582.59 229.702
10248.1 -3582.59 -334.371
10949.3 -3582.59 -476.657
7418.75 -1164.81 -1837.56
7065.7 -560.364 -1837.56
7065.7 -1230.41 -972.022
7498.29 -403.686 -1284.54
10949.3 393.448 -1073.54
10186.4 32.4586 -1092.26
8239.94 -128.081 -898.637
9750.45 32.8001 -1837.56
9521.32 458.105 -1141.35
10187.1 755.879 -1220.35
6712.65 -3582.59 -1837.56
7065.7 -3582.59 -1233.12
7418.75 -3582.59 -1837.56
7065.7 -2978.15 -1837.56
8545.95 -2170.56 -889
7771.8 -1769.26 -1837.56
7408.8 -1985.48 -1138.38
8071.02 -1534.03 -589.108
10349.9 1840.5 -1837.56
10349.9 1117.42 -1837.56
10949.3 1478.96 -1837.56
10191.4 1478.96 -1096.67
8061.86 742.322 -593.356
7556.32 1138.69 -1112.79
7497.84 1107.66 -365.739
8117.24 1682.36 -731.681
9151.04 1117.42 -1837.56
9750.45 1478.96 -1837.56
9151.04 1840.5 -1837.56
9341.71 1478.96 -1031.35
9417.7 -2933.12 -826.34
10190.6 -2805.71 -1095.39
10037.9 -2112.81 -916.096
8551.63 2202.04 -1837.56
7952.23 1840.5 -1837.56
7829.47 2267.47 -1157.18
9449.78 -891.139 -1021.37
9284.55 -2231.21 -1028.17
9750.45 -1413.36 -1837.56
10159.2 -1413.36 -1093.95
10243.2 -3582.59 -1837.56
10949.3 -2859.51 -1837.56
9890.11 -2978.15 -1837.56
8816.81 -1493.04 -1079.19
7588.69 319.406 -1108.98
8327.08 1173.6 -1212.65
8863.5 61.69 -632.484
8551.63 1478.96 -1837.56
8124.85 -2373.7 -1837.56
8124.85 -2779.03 -1034
8830.95 -2779.03 -1231.22
8801.97 701.556 -919.668
7771.8 -2978.15 -1837.56
7418.75 -2779.03 -1237.61
9750.45 755.879 -1837.56
6359.59 -2978.15 -1837.56
6712.65 -2831.17 -1086.14
6712.65 -2373.7 -1837.56
6359.59 -1769.26 -1837.56
7065.7 -1769.26 -1837.56
6729.22 -2069.42 -725.105
7676.61 -3582.59 -430.045
7352.82 32.8001 -1837.56
7952.23 -328.739 -1837.56
9151.04 -1051.82 -1837.56
9151.04 -1774.9 -1837.56
8124.85 -1164.81 -1837.56
8477.9 -1769.26 -1837.56
7771.8 -1093.22 -1180.87
7352.82 755.879 -1837.56
7952.23 1117.42 -1837.56
7352.82 1478.96 -1837.56
8841.7 2206.33 -865.016
10349.9 -328.739 -1837.56
10349.9 394.339 -1837.56
8775.68 -692.56 -720.526
9077.14 -3582.59 -710.825
8376.7 -3582.59 -569.666
8477.9 -3582.59 -1233.12
7771.8 -3582.59 -1233.12
9184.01 -2978.15 -1837.56
9537.06 -3582.59 -1837.56
9750.45 -690.278 -1837.56
7311.55 -1685.02 -403.578
9777.85 -3582.59 -852.85
10949.3 -3582.59 -1157.11
8830.95 -3582.59 -1837.56
6006.54 -2373.7 -1837.56
6006.54 -1968.37 -1227.68
7301.03 -2839.56 -493.738
7387.2 -444.856 -574.977
6963.77 76.0142 -294.272
8551.63 -690.278 -1837.56
6977.2 -3582.59 -293.129
10949.3 -1051 -1073.76
8477.9 -2978.15 -1837.56
8055.98 -736.012 -466.545
6623.82 -585.814 -223.017
9151.04 394.339 -1837.56
10949.3 -2497.56 -1075.53
10349.9 -1051.82 -1837.56
10309.7 -688.787 -991.818
10949.3 -690.278 -1837.56
10949.3 -328.51 -1073.13
6712.65 -1164.81 -1837.56
6134.85 -1012.41 -976.602
6803.49 -364.377 -1026.36
7952.23 394.339 -1837.56
6812.11 556.966 -818.746
9151.04 -328.739 -1837.56
10362.2 1117.81 -354.923
8551.63 32.8001 -1837.56
6291.26 -1366.9 -92.2087
8830.95 -2373.7 -1837.56
10949.3 1115.52 -1075.22
10949.3 32.8001 -1837.56
10349.9 -2497.97 -1837.56
10949.3 -1774.04 -1074.77
9151.04 2563.58 -1837.56
10349.9 -1774.9 -1837.56
9750.45 -2136.44 -1837.56
9750.45 2202.04 -1837.56
10949.3 755.879 -1837.56
10949.3 -3582.59 -1837.56
6359.59 -560.364 -1837.56
6359.59 -3582.59 -1233.12
8551.63 755.879 -1837.56
7418.75 -2373.7 -1837.56
6006.54 -1164.81 -1837.56
6396.61 -574.905 475.585
10949.3 -1413.36 -1837.56
10949.3 -2136.44 -1837.56
7418.75 2190.75 -1837.56
8124.85 -3582.59 -1837.56
7771.8 2795.2 -1837.56
6712.65 44.0812 -1837.56
5916.99 -774.027 -154.015</DataArray>
            </Points>
            <CellData>
                <DataArray type="UInt64" Name="partition" format="ascii">
1
1
1
1
1
1
1
1
1
1
1
1
1
1
1
1
1
1
1
1
1
1
1
1
1
1
1
1
1
1
1
1
1
1
1
1
1
1
1
1
1
1
1
1
1
1
1
1
1
1
1
1
1
1
1
1
1
1
1
1
1
1
1
1
1
1
1
1
1
1
1
1
1
1
1
1
1
1
1
1
1
1
1
1
1
1
1
1
1
1
1
1
1
1
1
1
1
1
1
1
1
1
1
1
1
1
1
1
1
1
1
1
1
1
1
1
1
1
1
1
1
1
1
1
1
1
1
1
1
1
1
1
1
1
1
1
1
1
1
1
1
1
1
1
1
1
1
1
1
1
1
1
1
1
1
1
1
1
1
1
1
1
1
1
1
1
1
1
1
1
1
1
1
1
1
1
1
1
1
1
1
1
1
1
1
1
1
1
1
1
1
1
1
1
1
1
1
1
1
1
1
1
1
1
1
1
1
1
1
1
1
1
1
1
1
1
1
1
1
1
1
1
1
1
1
1
1
1
1
1
1
1
1
1
1
1
1
1
1
1
1
1
1
1
1
1
1
1
1
1
1
1
1
1
1
1
1
1
1
1
1
1
1
1
1
1
1
1
1
1
1
1
1
1
1
1
1
1
1
1
1
1
1
1
1
1
1
1
1
1
1
1
1
1
1
1
1
1
1
1
1
1
1
1
1
1
1
1
1
1
1
1
1
1
1
1
1
1
1
1
1
1
1
1
1
1
1
1
1
1
1
1
1
1
1
1
1
1
1
1
1
1
1
1
1
1
1
1
1
1
1
1
1
1
1
1
1
1
1
1
1
1
1
1
1
1
1
1
1
1
1
1
1
1
1
1
1
1
1
1
1
1
1
1
1
1
1
1
1
1
1
1
1
1
1
1
1
1
1
1
1
1
1
1
1
1
1
1
1
1
1
1
1
1
1
1
1
1
1
1
1
1
1
1
1
1
1
1
1
1
1
1
1
1
1
1
1
1
1
1
1
1
1
1
1
1
1
1
1
1
1
1
1
1
1
1
1
1
1
1
1
1
1
1
1
1
1
1
1
1
1
1
1
1
1
1
1
1
1
1
1
1
1
1
1
1
1
1
1
1
1
1
1
1
1
1
1
1
1
1
1
1
1
1
1
1
1
1
1
1
1
1
1
1
1
1
1
1
1
1
1
1
1
1
1
1
1
1
1
1
1
1
1
1
1
1
1
1
1
1
1
1
1
1
1
1
1
1
1
1
1
1
1
1
1
1
1
1
1
1
1
1
1
1
1
1
1
1
1
1
1
1
1
1
1
1
1
1
1
1
1
1
1
1
1
1
1
1
1
1
1
1
1
1
1
1
1
1
1
1
1
1
1
1
1
1
1
1
1
1
1
1
1
1
1
1
1
1
1
1
1
1
1
1
1
1
1
1
1
1
1
1
1
1
1
1
1
1
1
1
1
1
1
1
1
1
1
1
1
1
1
1
1
1
1
1
1
1
1
1
1
1
1
1
1
1
1
1
1
1
1
1
1
1
1
1
1
1
1
1
1
1
1
1
1
1
1
1
1
1
1
1
1
1
1
1
1
1
1
1
1
1
1
1
1
1
1
1
1
1
1
1
1
1
1
1
1
1
1
1
1
1
1
1
1
1
1
1
1
1
1
1
1
1
1
1
1
1
1
1
1
1
1
1
1
1
1
1
1
1
1
1
1
1
1
1
1
1
1
1
1
1
1
1
1
1
1
1
1
1
1
1
1
1
1
1
1
1
1
1
1
1
1
1
1
1
1
1
1
1
1
1
1
1
1
1
1
1
1
1
1
1
1
1
1
1
1
1
1
1
1
1
1
1
1
1
1
1
1
1
1
1
1
1
1
1
1
1
1
1
1
1
1
1
1
1
1
1
1
1
1
1
1
1
1
1
1
1
1
1
1
1
1
1
1
1
1
1
1
1
1
1
1
1
1
1
1
1
1
1
1
1
1
1
1
1
1
1
1
1
1
1
1
1
1
1
1
1
1
1
1
1
1
1
1
1
1
1
1
1
1
1
1
1
1
1
1
1
1
1
1
1
1
1
1
1
1
1
1
1
1
1
1
1
1
1
1
1
1
1
1
1
1
1
1
1
1
1
1
1
1
1
1
1
1
1
1
1
1
1
1
1
1
1
1
1
1
1
1
1
1
1
1
1
1
1
1
1
1
1
1
1
1
1
1
1
1
1
1
1
1
1
1
1
1
1
1
1
1
1
1
1
1
1
1
1
1
1
1
1
1
1
1
1
1
1
1
1
1
1
1
1
1
1
1
1
1
1
1
1
1
1
1
1
1
1
1
1
1
1
1
1
1
1
1
1
1
1
1
1
1
1
1
1
1
1
1
1
1
1
1
1
1
1
1
1
1
1
1
1
1
1
1
1
1
1
1
1
1
1
1
1
1
1
1
1
1
1
1
1
1
1
1
1
1
1
1
1
1
1
1
1
1
1
1
1
1
1
1
1
1
1
1
1
1
1
1
1
1
1
1
1
1
1
1
1
1
1
1
1
1
1
1
1
1
1
1
1
1
1
1
1
1
1
1
1
1
1
1
1
1
1
1
1
1
1
1
1
1
1
1
1
1
1
1
1
1
1
1
1
1
1
1
1
1
1
1
1
1
1
1
1
1
1
1
1
1
1
1
1
1
1
1
1
1
1
1
1
1
1
1
1
1
1
1
1
1
1
1
1
1
1
1
1
1
1
1
1
1
1
1
1
1
1
1
1
1
1
1
1
1
1
1
1
1
1
1
1
1
1
1
1
1
1
1
1
1
1
1
1
1
1
1
1
1
1
1
1
1
1
1
1
1
1
1
1
1
1
1
1
1
1
1
1
1
1
1
1
1
1
1
1
1
1
1
1
1
1
1
1
1
1
1
1
1
1
1
1
1
1
1
1
1
1
1
1
1
1
1
1
1
1
1
1
1
1
1
1
1
1
1
1
1
1
1
1
1
1
1
1
1
1
1
1
1
1
1
1
1
1
1
1
1
1
1
1
1
1
1
1
1
1
1
1
1
1
1
1
1
1
1
1
1
1
1
1
1
1
1
1
1
1
1
1
1
1
1
1
1
1
1
1
1
1
1
1
1
1
1
1
1
1
1
1
1
1
1
1
1
1
1
1
1
1
1
1
1
1
1
1
1
1
1
1
1
1
1
1
1
1
1
1
1
1
1
1
1
1
1
1
1
1
1
1
1
1
1
1
1
1
1
1
1
1
1
1
1
1
1
1
1
1
1
1
1
1
1
1
1
1
1
1
1
1
1
1
1
1
1
1
1
1
1
1
1
1
1
1
1
1
1
1
1
1
1
1
1
1
1
1
1
1
1
1
1
1
1
1
1
1
1
1
1
1
1
1
1
1
1
1
1
1
1
1
1
1
1
1
1
1
1
1
1
1
1
1
1
1
1
1
1
1
1
1
1
1
1
1
1
1
1
1
1
1
1
1
1
1
1
1
1
1
1
1
1
1
1
1
1
1
1
1
1
1
1
1
1
1
1
1
1
1
1
1
1
1
1
1
1
1
1
1
1
1
1
1
1
1
1
1
1
1
1
1
1
1
1
1
1
1
1
1
1
1
1
1
1
1
1
1
1
1
1
1
1
1
1
1
1
1
1
1
1
1
1
1
1
1
1
1
1
1
1
1
1
1
1
1
1
1
1
1
1
1
1
1
1
1
1
1
1
1
1
1
1
1
1
1
1
1
1
1
1
1
1
1
1
1
1
1
1
1
1
1
1
1
1
1
1
1
1
1
1
1
1
1
1</DataArray>
                <DataArray type="UInt64" Name="region" format="ascii">
0
0
0
0
0
0
0
0
0
0
0
0
0
0
0
0
0
0
0
0
0
0
0
0
0
0
0
0
0
0
0
0
0
0
0
0
0
0
0
0
0
0
0
0
0
0
0
0
0
0
0
0
0
0
0
0
0
0
0
0
0
0
0
0
0
0
0
0
0
0
0
0
0
0
0
0
0
0
0
0
0
0
0
0
0
0
0
0
0
0
0
0
0
0
0
0
0
0
0
0
0
0
0
0
0
0
0
0
0
0
0
0
0
0
0
0
0
0
0
0
0
0
0
0
0
0
0
0
0
0
0
0
0
0
0
0
0
0
0
0
0
0
0
0
0
0
0
0
0
0
0
0
0
0
0
0
0
0
0
0
0
0
0
0
0
0
0
0
0
0
0
0
0
0
0
0
0
0
0
0
0
0
0
0
0
1
1
1
1
1
1
1
1
1
1
1
1
1
1
1
1
1
1
1
1
1
1
1
1
1
1
1
1
1
1
1
1
1
1
1
1
1
1
1
1
1
1
1
1
1
1
1
1
1
1
1
1
1
1
1
1
1
1
1
1
1
1
1
1
1
1
1
1
1
1
1
1
1
1
1
1
1
1
1
1
1
1
1
1
1
1
1
1
1
1
1
1
1
1
1
1
1
1
1
1
1
1
1
1
1
1
1
1
1
1
1
1
1
1
1
1
1
1
1
1
1
1
1
1
1
1
1
1
1
1
1
1
1
1
1
1
1
1
1
1
1
1
1
1
1
1
1
1
1
1
1
1
1
1
1
1
1
1
1
1
1
1
1
1
1
1
1
1
1
1
1
1
1
1
1
1
1
1
1
1
1
1
1
1
1
1
1
1
1
1
1
1
1
1
1
1
1
1
1
1
1
1
1
1
1
1
1
1
1
1
1
1
1
1
1
1
1
1
1
1
1
1
1
1
1
1
1
1
1
1
1
1
1
1
1
1
1
1
1
1
1
1
1
1
1
1
1
1
1
1
1
1
1
1
1
1
1
1
1
1
1
1
1
1
1
1
1
1
1
1
1
1
1
1
1
1
1
1
1
1
1
1
1
1
1
1
1
1
1
1
1
1
1
1
1
1
1
1
1
1
1
1
1
1
1
1
1
1
1
1
1
1
1
1
1
1
1
1
1
1
1
1
1
1
1
1
1
1
1
1
1
1
1
1
1
1
1
1
1
1
1
1
1
1
1
1
1
1
1
1
1
1
1
1
1
1
1
1
1
1
1
1
1
1
1
1
1
1
1
1
1
1
1
1
1
1
1
1
1
1
1
1
1
1
1
1
1
1
1
2
2
2
2
2
2
2
2
2
2
2
2
2
2
2
2
2
2
2
2
2
2
2
2
2
2
2
2
2
2
2
2
2
2
2
2
2
2
2
2
2
2
2
2
2
2
2
2
2
2
2
2
2
2
2
2
2
2
2
2
2
2
2
2
2
2
2
2
2
2
2
2
2
2
2
2
2
2
2
2
2
2
2
2
2
2
2
2
2
2
2
2
2
2
2
2
2
2
2
2
2
2
2
2
2
2
2
2
2
2
2
2
2
2
2
2
2
2
2
2
2
2
2
2
2
2
2
2
2
2
2
2
2
2
2
2
2
2
2
2
2
2
2
2
2
2
2
2
2
2
2
2
2
2
2
2
2
2
2
2
2
2
2
2
2
2
2
2
2
2
2
2
2
2
2
2
2
2
2
2
2
2
2
2
2
2
2
2
2
2
2
2
2
2
2
2
2
2
2
2
2
2
2
2
2
2
2
2
2
2
2
2
2
3
3
3
3
3
3
3
3
3
3
3
3
3
3
3
3
3
3
3
3
3
3
3
3
3
3
3
3
3
3
3
3
3
3
3
3
3
3
3
3
3
3
3
3
3
3
3
3
3
3
3
3
3
3
3
3
3
3
3
3
3
3
3
3
3
3
3
3
3
3
3
3
3
3
3
3
3
3
3
3
3
3
3
3
3
3
3
3
3
3
3
3
3
3
3
3
3
3
3
3
3
3
3
3
3
3
3
3
3
3
3
3
3
3
3
3
3
3
3
3
3
3
3
3
3
3
3
3
3
3
3
3
3
3
3
3
3
3
3
3
3
3
3
3
3
3
3
3
3
3
3
3
3
3
3
3
3
3
3
3
3
3
3
3
3
3
3
3
3
3
3
3
3
3
3
3
3
3
3
3
3
3
3
3
3
3
3
3
3
3
3
3
3
3
3
3
3
3
3
3
3
3
3
3
3
3
3
3
3
3
3
3
3
3
3
3
3
3
3
3
3
3
3
3
3
3
3
3
3
3
3
3
3
3
3
3
3
3
3
3
3
3
3
3
3
3
3
3
3
3
3
3
3
3
3
3
3
3
3
3
3
3
3
3
3
3
3
3
3
3
3
3
3
3
3
3
3
3
3
3
3
3
3
3
3
3
3
3
3
3
3
3
3
3
3
3
3
3
3
3
3
3
3
3
3
3
3
3
3
3
3
3
3
3
3
3
3
3
3
3
3
3
3
3
3
3
3
3
3
3
3
3
3
3
3
3
3
3
3
3
3
3
3
3
3
3
3
3
3
3
3
3
3
3
3
3
3
3
3
3
3
3
3
3
3
3
3
3
3
3
3
3
3
3
3
3
3
3
3
3
3
3
3
3
3
3
3
3
3
3
3
3
3
3
3
3
3
3
3
3
3
3
3
3
3
3
3
3
3
3
3
3
3
3
3
3
3
3
3
3
3
3
3
3
3
3
3
3
3
3
3
3
3
3
3
3
3
3
3
3
3
3
3
3
3
3
3
3
3
3
3
3
3
3
3
3
3
3
3
3
3
3
3
3
3
3
3
3
3
3
3
3
3
3
3
3
3
3
3
3
3
3
3
3
3
3
3
3
3
3
3
3
3
3
3
3
3
3
3
3
3
3
3
3
3
3
3
3
3
3
3
3
3
3
3
3
3
3
3
3
3
3
3
3
3
3
3
3
3
3
3
3
3
3
3
3
3
3
3
3
3
3
3
3
3
3
3
3
3
3
3
3
3
3
3
3
3
3
3
3
3
3
3
3
3
3
3
3
3
7
7
7
7
7
7
7
7
7
7
7
7
7
7
7
7
7
7
7
7
7
7
7
7
7
7
7
7
7
7
7
7
7
7
7
7
7
7
7
7
7
7
7
7
7
7
7
7
7
7
7
7
7
7
7
7
7
7
7
7
7
7
7
7
7
7
7
7
7
7
7
7
7
7
7
7
7
7
7
7
7
7
7
7
7
7
7
7
7
7
7
7
7
7
7
7
7
7
7
7
7
7
7
7
7
7
7
7
7
7
7
7
8
8
8
8
8
8
8
8
8
8
8
8
8
8
8
8
8
8
8
8
8
8
8
8
9
9
9
9
9
9
9
9
10
10
10
10
10
10
10
10
10
11
11
11
11
11
11
11
11
11
11
11
11
11
11
11
11
11
11
11
11
11
11
11
11
11
11
11
11
16
16
16
16
16
16
16
16
16
16
16
16
16
16
16
16
16
16
16
16
16
16
16
16
16
16
16
16
16
16
16
16
16
16
16
16
16
16
16
16
16
16
16
16
16
16
16
16
17
17
17
17
17
17
17
17
17
17
17
17
18
18
18
18
18
18
18
18
18
18
18
18
19
19
19
19
19
19
19
19
19
19
19
19
19
19
19
19
19
19
19
19
19
19
19
19
19
20
20
20
20
20
20
20
20
20
20
20
20
20
20
20
20
20
20
20
20
20
20
20
20
20
20
20
20
20
20
20
20
20
20
20
20
20
20
20
20
20
20
20</DataArray>
                <DataArray type="UInt64" Name="original_index" format="ascii">
9
27
28
31
48
105
120
142
173
217
219
222
224
266
306
307
315
321
364
372
435
470
493
511
512
560
586
777
1020
1050
1304
1320
1415
1425
1427
1445
1452
1456
1472
1473
1504
1513
1525
1526
1527
1532
1535
1536
1552
1656
1734
1759
1763
1769
1771
1774
1776
1779
1794
1798
1800
1802
1825
1830
1882
1889
1896
1897
1902
1913
1914
1915
1924
1928
1930
1931
1932
1935
1941
1942
1943
1944
1945
1946
1948
1950
1952
1953
1955
1956
1957
1958
1959
1960
1961
1963
1964
1965
1966
1967
1970
1971
1972
1973
1976
1979
1980
1981
1982
1984
1985
1987
1990
1991
1992
1994
1995
1996
1997
1998
2000
2001
2002
2003
2004
2005
2006
2007
2008
2013
2014
2015
2016
2017
2018
2019
2020
2021
2023
2024
2025
2026
2027
2028
2029
2030
2031
2032
2033
2034
2035
2036
2037
2038
2039
2040
2041
2042
2043
2044
2045
2046
2047
2048
2049
2050
2051
2052
2053
2054
2055
2056
2057
2058
2059
2060
2061
2062
2063
2064
2065
2066
2067
2068
2069
2070
2086
2098
2102
2138
2149
2153
2154
2183
2188
2206
2218
2222
2244
2253
2257
2262
2303
2304
2310
2325
2328
2329
2334
2344
2346
2365
2385
2414
2437
2448
2457
2473
2493
2498
2500
2526
2528
2531
2542
2579
2586
2590
2597
2624
2658
2676
2683
2684
2687
2692
2693
2696
2720
2729
2735
2767
2773
2797
2800
2811
2822
2825
2829
2846
2847
2883
2917
2933
2938
2945
2955
2987
2996
3028
3036
3041
3057
3061
3072
3089
3092
3102
3107
3108
3130
3134
3166
3170
3173
3190
3202
3209
3220
3234
3239
3253
3254
3291
3293
3297
3313
3316
3324
3333
3338
3355
3358
3361
3365
3373
3378
3388
3405
3432
3451
3464
3466
3473
3483
3489
3490
3493
3501
3506
3507
3509
3513
3533
3536
3544
3569
3594
3613
3619
3644
3662
3663
3666
3678
3679
3682
3692
3717
3719
3721
3741
3750
3765
3766
3772
3780
3791
3796
3809
3823
3851
3860
3864
3865
3874
3877
3878
3890
3903
3908
3909
3917
3938
3943
3955
3996
3998
4004
4023
4028
4052
4061
4071
4074
4083
4113
4115
4122
4135
4140
4147
4148
4153
4161
4167
4168
4180
4190
4203
4212
4231
4248
4258
4262
4279
4347
4367
4381
4386
4387
4397
4398
4402
4418
4422
4430
4446
4469
4495
4513
4514
4544
4565
4574
4582
4584
4588
4589
4591
4603
4605
4606
4617
4621
4627
4631
4638
4654
4683
4690
4698
4706
4707
4712
4739
4758
4770
4789
4805
4843
4846
4856
4859
4864
4867
4886
4901
4911
4924
4933
5011
5018
5027
5083
5100
5108
5116
5125
5133
5148
5174
5183
5184
5199
5231
5238
5243
5249
5263
5272
5287
5298
5309
5315
5322
5325
5346
5386
5408
5416
5418
5434
5454
5465
5481
5493
5518
5527
5541
5550
5577
5594
5608
5611
5621
5636
5645
5648
5654
5656
5658
5663
5667
5670
5686
5689
5703
5708
5738
5746
5749
5751
5755
5756
5764
5768
5802
5809
5812
5813
5818
5821
5831
5837
5841
5850
5854
5865
5875
5885
5897
5903
5906
5926
5928
5950
5952
5954
5962
5966
5973
5985
6002
6004
6008
6027
6038
6052
6053
6067
6068
6070
6105
6120
6123
6131
6138
6146
6147
6148
6177
6178
6190
6228
6230
6238
6245
6248
6251
6257
6262
6271
6272
6273
6274
6275
6276
6278
6351
6352
6353
6354
6355
6474
6486
6512
6553
6565
6567
6622
6631
6632
6640
6641
6651
6657
6660
6663
6665
6667
6676
6677
6686
6691
6697
6700
6704
6721
6751
6752
6757
6758
6760
6761
6762
6779
6783
6787
6791
6794
6821
6824
6826
6853
6870
6938
6940
7042
7254
7536
7707
7726
7733
7749
7751
7752
7764
7776
7789
7813
7814
7827
7838
7846
7858
7863
7866
7868
7876
7877
7878
7880
7882
7886
7889
7890
7892
7893
7894
7897
7900
7901
7904
7905
7910
8010
8061
8085
8097
8106
8109
8111
8112
8120
8122
8128
8130
8143
8146
8210
8213
8276
8280
8281
8282
8283
8288
8289
8290
8291
8294
8295
8296
8297
8298
8299
8300
8301
8302
8303
8304
8305
8306
8307
8308
8309
8310
8311
8313
8314
8315
8318
8319
8322
8325
8326
8327
8328
8329
8330
8331
8332
8333
8334
8335
8336
8337
8338
8339
8340
8341
8342
8343
8346
8354
8367
8369
8376
8394
8398
8400
8402
8403
8404
8405
8408
8409
8410
8414
8415
8416
8418
8420
8421
8422
8423
8424
8425
8426
8427
8428
8429
8430
8431
8432
8433
8434
8435
8436
8437
8438
8439
8440
8441
8442
8443
8444
8445
8446
8447
8448
8449
8450
8451
8452
8453
8454
8455
8456
8457
8458
8459
8460
8461
8462
8463
8466
8472
8483
8484
8490
8502
8513
8516
8544
8547
8551
8580
8581
8594
8610
8613
8617
8621
8656
8668
8671
8675
8691
8717
8718
8729
8734
8751
8753
8766
8829
8834
8839
8842
8858
8865
8870
8874
8883
8885
8887
8891
8904
8915
8916
8923
8926
8932
8946
8958
8959
8968
8974
8989
8990
8996
9005
9008
9026
9044
9048
9058
9072
9075
9076
9082
9099
9101
9111
9116
9121
9129
9141
9143
9165
9190
9192
9198
9208
9214
9217
9220
9254
9259
9265
9271
9281
9284
9299
9318
9324
9327
9344
9346
9353
9355
9356
9363
9379
9380
9389
9391
9398
9402
9404
9414
9418
9420
9422
9432
9435
9437
9449
9453
9485
9497
9509
9513
9514
9539
9545
9553
9567
9575
9582
9596
9615
9618
9634
9654
9665
9675
9680
9688
9691
9692
9696
9703
9709
9712
9715
9716
9734
9735
9752
9760
9787
9792
9798
9801
9815
9826
9838
9839
9848
9850
9852
9859
9890
9893
9894
9904
9983
9987
9991
10012
10036
10042
10058
10059
10066
10075
10080
10086
10088
10090
10092
10100
10101
10105
10113
10115
10132
10137
10162
10187
10190
10196
10200
10242
10271
10286
10321
10326
10337
10346
10358
10365
10367
10369
10374
10381
10390
10398
10412
10424
10434
10451
10467
10474
10483
10492
10496
10499
10504
10508
10536
10538
10540
10541
10547
10558
10561
10564
10566
10573
10574
10599
10612
10624
10633
10647
10653
10657
10665
10668
10675
10679
10688
10692
10700
10704
10705
10706
10709
10717
10730
10743
10746
10750
10757
10761
10762
10765
10778
10782
10795
10802
10808
10831
10838
10857
10872
10873
10878
10879
10882
10890
10909
10912
10922
10938
10946
10948
10951
10955
10963
10968
11010
11015
11017
11025
11034
11050
11052
11063
11064
11067
11074
11089
11092
11100
11104
11116
11122
11123
11130
11133
11140
11143
11156
11157
11172
11177
11188
11196
11209
11219
11225
11236
11237
11248
11252
11261
11262
11282
11289
11298
11300
11321
11323
11329
11331
11363
11370
11379
11381
11383
11387
11401
11404
11408
11409
11410
11425
11427
11434
11436
11441
11446
11447
11448
11467
11472
11474
11478
11485
11487
11489
11492
11493
11518
11533
11536
11547
11554
11560
11563
11594
11602
11604
11614
11626
11646
11650
11664
11667
11668
11686
11690
11699
11707
11714
11719
11721
11732
11746
11756
11790
11842
11847
11851
11858
11861
11866
11883
11895
11902
11911
11921
11928
11932
11943
11944
11961
11983
11987
11989
11990
11991
12016
12020
12022
12027
12039
12055
12056
12065
12112
12113
12115
12126
12127
12134
12148
12151
12155
12157
12166
12173
12216
12223
12225
12228
12231
12233
12234
12244
12251
12259
12286
12302
12310
12321
12323
12340
12350
12375
12380
12411
12413
12421
12429
12450
12453
12461
12467
12469
12474
12479
12491
12501
12513
12518
12522
12525
12534
12541
12545
12552
12558
12564
12569
12570
12572
12577
12600
12605
12607
12610
12615
12617
12627
12638
12639
12640
12641
12648
12649
12653
12667
12669
12676
12678
12689
12691
12697
12699
12707
12723
12747
12754
12767
12785
12792
12793
12797
12800
12808
12819
12822
12827
12844
12859
12860
12865
12872
12878
12884
12893
12895
12901
12902
12905
12909
12914
12919
12920
12929
12933
12936
12941
12944
12949
12955
12956
12964
12966
12989
12992
12993
13005
13011
13013
13023
13030
13033
13035
13037
13038
13039
13041
13059
13070
13075
13112
13133
13136
13151
13165
13171
13174
13175
13177
13184
13187
13189
13191
13194
13196
13208
13212
13217
13220
13442
13443
13444
13445
13446
2495
2496
2497
2515
2516
2517
2519
2520
2521
2522
2523
2524
2525
2526
2530
2531
2532
2533
2534
2535
2536
2537
2538
2539
2540
2541
2542
2543
2544
2546
2551
2552
2553
2554
2555
2556
2557
2558
2559
2560
2561
2562
2563
2564
2565
2566
2567
2568
2569
2570
2571
2572
2573
2574
2575
2576
2577
2578
2579
2580
2581
2582
2583
2584
2585
2586
2587
2588
2589
2590
2591
2592
2593
2594
2595
2596
2597
2598
2599
2600
2601
2602
2603
2604
2605
2606
2607
2608
2609
2610
2611
2612
2613
2614
2615
2616
2617
2618
2619
2620
2624
2643
2645
2646
2647
2648
2649
2650
2651
2652
2666
2670
3108
3117
3125
3126
3135
3204
3206
3207
3208
3209
3210
3211
3212
3213
3214
3215
3216
3217
3218
3219
3220
3221
3222
3223
3262
3263
3264
3265
3266
3267
3268
3269
3307
3308
3309
3310
3311
3312
3313
3314
3315
3316
3317
3318
3319
3320
3321
3322
3323
3324
3325
3326
3328
3330
3333
3338
3339
3342
3346
3347
3351
3353
3360
3393
3405
3413
3414
3415
3416
3670
3671
3672
3673
3674
3675
3676
3677
3678
3679
3680
3681
3682
3683
3684
3685
3686
3687
3688
3689
3690
3691
3692
3693
3694
3695
3696
3697
3698
3700
3701
3704
3705
3706
3707
3713
3714
3715
3732
3733
3734
3735
3736
3737
3738
3739
3741
3742
3784
3785
3786
3787
3788
3789
3790
3791
3792
3793
3794
3795
3800
3801
3802
3803
3804
3805
3806
3807
3808
3809
3810
3811
3826
3827
3846
3847
3848
3856
3857
3858
3859
3860
3861
3862
3863
3864
3865
3866
3867
3868
3869
3870
3871
3872
3873
3874
3875
3933
3934
3935
3936
3937
3938
3939
3940
3941
3996
3997
3998
3999
4000
4001
4059
4060
4061
4062
4063
4064
4065
4066
4067
4068
4069
4070
4071
4072
4073
4074
4075
4076
4077
4078
4081
4222
4223
4224
4439
4440
4441
4442</DataArray>
            </CellData>
            <Cells>
                <DataArray type="UInt64" Name="connectivity" format="ascii">
0 1 2 3 
4 5 6 7 
8 9 10 11 
12 13 14 15 
16 17 18 19 
20 21 1 22 
23 24 9 25 
26 27 14 28 
29 30 31 18 
26 32 28 33 
34 35 36 31 
27 13 14 28 
35 37 38 31 
37 12 39 13 
40 13 27 28 
12 39 13 15 
41 20 42 43 
1 44 42 43 
45 46 47 16 
30 37 48 40 
49 46 24 23 
41 20 50 51 
1 22 2 3 
29 45 47 16 
12 14 28 33 
52 53 54 11 
55 56 57 54 
58 21 22 59 
56 55 10 54 
44 42 43 60 
56 57 54 50 
61 62 63 3 
64 65 6 7 
14 26 28 33 
20 1 42 43 
53 52 59 27 
12 14 33 15 
66 52 10 11 
21 20 58 22 
8 23 9 25 
9 66 11 25 
40 12 13 28 
13 12 14 28 
20 21 58 51 
8 67 23 55 
8 56 55 10 
24 19 9 25 
21 20 41 51 
53 40 68 27 
52 56 10 54 
52 56 54 51 
48 40 13 68 
69 46 45 70 
22 58 59 71 
30 29 72 16 
46 69 49 70 
16 17 19 25 
46 45 70 24 
66 17 11 25 
24 73 23 9 
17 53 68 52 
49 46 70 24 
46 69 45 47 
17 68 66 52 
59 53 27 71 
74 64 6 7 
40 48 18 68 
26 64 32 7 
34 35 31 72 
40 13 68 27 
75 37 39 38 
29 47 72 16 
39 37 48 38 
62 61 74 3 
12 76 39 15 
30 29 31 72 
29 34 31 72 
77 35 75 36 
36 35 38 31 
37 39 48 13 
12 76 37 39 
76 75 37 39 
37 48 38 31 
29 16 18 19 
17 40 18 68 
35 75 36 38 
55 10 54 11 
30 48 31 18 
46 16 19 25 
37 48 40 13 
12 37 40 13 
63 0 2 3 
58 54 50 51 
45 46 16 19 
29 45 16 19 
1 42 78 2 
75 35 37 38 
35 30 31 72 
35 30 37 31 
37 30 48 31 
30 17 40 18 
48 30 40 18 
17 30 16 18 
30 29 16 18 
17 53 40 68 
19 66 9 25 
53 52 58 59 
18 17 68 66 
17 18 19 66 
45 46 19 24 
9 66 10 11 
73 8 23 9 
73 8 67 23 
66 17 52 11 
19 17 66 25 
42 44 78 60 
58 53 59 71 
56 79 50 51 
23 8 55 25 
12 80 76 15 
46 24 23 25 
17 53 52 11 
10 52 54 11 
55 8 10 11 
20 58 50 51 
46 19 24 25 
55 8 11 25 
8 9 11 25 
53 52 54 58 
79 41 50 51 
54 56 50 51 
52 54 58 51 
80 4 65 33 
27 26 71 28 
53 68 52 27 
62 0 63 3 
61 63 2 3 
64 26 33 7 
20 21 41 42 
21 20 1 42 
21 58 51 59 
0 1 78 2 
1 21 42 2 
65 4 6 7 
0 1 44 78 
44 1 42 78 
53 27 71 28 
58 52 51 59 
21 1 22 2 
71 26 32 28 
53 40 27 28 
0 78 63 2 
81 82 6 83 
5 74 6 7 
80 12 33 15 
59 27 26 71 
64 14 65 33 
4 65 33 7 
62 61 63 81 
64 26 14 33 
14 65 33 15 
62 82 74 81 
61 62 74 81 
61 74 3 32 
65 80 33 15 
82 5 6 83 
26 32 33 7 
59 22 71 32 
26 59 71 32 
22 2 3 32 
26 61 2 32 
2 61 3 32 
74 61 64 32 
61 26 64 32 
21 59 26 32 
21 22 59 32 
21 26 2 32 
22 21 2 32 
65 64 33 7 
64 74 32 7 
82 5 74 6 
82 74 81 6 
5 82 84 83 
74 61 81 6 
61 74 64 6 
85 86 87 88 
89 90 91 92 
93 94 95 86 
91 96 97 98 
59 26 97 99 
100 101 102 103 
9 73 8 104 
105 106 107 108 
109 97 110 98 
111 88 112 113 
114 115 116 112 
117 118 119 96 
120 121 122 102 
48 68 13 123 
86 95 108 113 
124 125 109 98 
94 126 95 123 
125 127 122 128 