<?xml version="1.0" encoding="UTF-8"?>
<VTKFile type="UnstructuredGrid" version="0.1" byte_order="LittleEndian">
    <UnstructuredGrid>
        <Piece NumberOfPoints="356" NumberOfCells="1559">
            <PointData>
                <DataArray type="UInt64" Name="original_index" format="ascii" NumberOfComponents="1">
922
923
882
604
637
603
955
636
719
137
718
400
403
722
464
782
835
836
517
881
467
838
521
520
723
53
141
404
402
139
721
720
140
562
921
779
461
839
785
465
518
837
519
51
605
883
564
565
405
463
52
880
142
954
602
638
783
957
606
639
665
640
563
460
514
833
566
607
924
49
138
832
879
834
561
401
780
462
516
50
878
468
407
48
406
724
956
781
55
54
515
466
784
884
920
786
919
601
953
635
560
559
600
958
925
725
143
56
2207
2262
2319
2001
2000
2051
2240
2362
2321
2002
1946
2226
2052
2263
2340
2184
2368
1303
2342
2203
2330
2096
1949
2419
1945
2257
2094
2095
1944
1943
1999
2343
2178
2332
252
1883
1884
2236
1304
1305
2258
2005
2055
2056
2399
1882
1307
1306
250
1881
1880
2271
2460
1947
2099
2100
2418
2305
2006
251
2232
1950
2301
2217
2222
1948
1886
1885
254
2097
2049
2247
1302
2185
1879
2053
253
1308
2057
2004
1309
1998
2454
255
2003
249
2098
2054
2050
248
1194
1195
1150
222
1042
1196
1234
1193
1149
1148
1265
1233
1039
1097
1040
1096
1038
220
223
1098
1099
1041
1152
1151
1232
1264
1231
1044
1101
221
1153
1154
219
1230
1192
1095
1100
1043
224
218
1197
1235
1266
1267
1198
2497
2499
2794
2773
2805
2492
2579
2799
2823
1361
1362
1377
2564
1341
1340
2552
2556
2527
2724
2843
1392
1393
2645
1508
2680
2775
1562
2621
2653
2664
2607
2571
2660
2811
1360
1359
291
1390
2572
1510
2776
2629
2853
1512
1511
1339
2582
2855
2481
2828
2847
2643
1391
2525
2782
1607
1642
1643
2826
2743
1342
1376
1374
2585
2829
1606
2500
2751
1561
1563
1564
2604
1454
2647
1455
1673
2669
1375
1560
293
292
1363
2642
1343
2536
2469
1389
1453
2612
2682
2503
1373
1358
1337
2713
1507
2866
1605
290
1456
1608
1452
1338
2854
1457
1509
1513
1378
1379
2747
2868
1604
2849</DataArray>
            </PointData>
            <Points>
                <DataArray type="Float64" Name="Points" format="ascii" NumberOfComponents="3">
1420.72 2809.08 1711.76
2135.17 2808.66 1741.01
1777.93 3410.61 1735.66
1420.6 2809.04 1911.84
1064.24 2207.44 1878.96
707.773 2809.42 1855.4
1064.26 2207.5 1679.73
352.895 2207.83 1809.04
-709.076 5215.78 1456.75
-1063.95 5817.43 1411.17
-1416.61 5215.8 1350.53
-1416.54 5215.77 1550.43
709.46 5215.73 1843.31
1421.69 5215.73 1711.49
1064.27 4614.16 1890.45
1064.36 4614.17 1690.75
707.436 4012.67 1662.29
1420.81 4012.49 1721.21
707.398 4012.65 1861.73
1063.84 3410.99 1693.28
3207.77 4613.83 1917.16
2850.67 4011.96 1737.2
3564.89 4012.33 1891.56
2850.86 4012.04 1938.66
2136.04 5215.75 1742.72
1778.46 5817.43 1935.94
1778.3 5817.43 1739.67
1421.62 5215.72 1911.24
-0.554227 5215.73 1755.5
353.988 5817.43 1604.29
709.544 5215.75 1643.86
-0.506252 5215.76 1556.01
1065.01 5817.43 1684.26
351.336 3411.1 1824.87
707.852 2809.47 1655.32
-1063.88 4614.14 1410.41
-1063.89 4614.08 1610.43
3564.48 4012.29 1693.17
3207.34 4613.9 1715.77
1778.3 4614 1937.98
1420.72 4012.47 1920.63
2135.69 4012.15 1748.11
2135.52 4012.11 1949.42
354.258 5817.43 1800.96
2135.28 2808.78 1941.54
2493.05 3410.25 1744.48
1777.78 3410.58 1935.84
2493.14 3410.38 1944.48
2136 5215.68 1943.74
352.665 4614.21 1813.89
1065.33 5817.43 1879.61
351.384 3411.14 1624.97
2493.48 5817.43 1757.82
352.857 2207.89 1609.72
-3.55768 2809.51 1778.65
1777.67 2207.17 1927.63
1778.42 4614.02 1737.72
2492.97 2207.01 1740.48
2851.05 2808.85 1936.27
2493.26 2207.24 1942.91
2851.44 1605.85 1936.66
3208.69 2207.46 1915.82
1063.74 3410.96 1893.26
-1770.2 4614.08 1496.69
-1418.86 4012.49 1564.89
-712.103 4012.67 1477.33
3208.31 3410.54 1918
3565.49 2809.16 1890.28
2850.78 2808.63 1735.35
-1063.86 5817.43 1610.66
-355.486 5817.43 1511.44
-1418.92 4012.58 1364.89
-358.843 3411.16 1535.57
-3.49138 4012.73 1578.46
-358.889 3411.08 1735.69
-709.099 5215.74 1656.62
-356.364 4614.2 1517.51
-356.416 4614.14 1717.39
-3.58227 4012.67 1778.61
-355.27 5817.43 1709.31
-1067.07 3411.1 1431.39
3919.91 4614.16 1849.58
3563.27 5215.71 1880.23
-1771.39 5817.43 1504.64
2850.67 5215.57 1936.96
2850.32 5215.82 1730.77
1777.52 2207.06 1727.94
352.781 4614.23 1613.91
3207.62 5817.43 1918.29
2493.54 5817.43 1951.85
-712.135 4012.59 1677.35
2493.31 4613.76 1948.29
2493.39 4613.85 1746.27
3208.04 3410.36 1718.3
-3.51196 2809.58 1578.45
3919.4 4614.1 1650.15
-713.116 2809.55 1484.92
-713.106 2809.45 1684.99
-357.252 2208.01 1523.76
-357.245 2207.91 1723.95
-1067.08 3410.99 1631.64
-1773.45 3410.89 1516.49
-1421 2809.34 1579.13
3208.14 2207.14 1712.88
3565.08 2808.89 1690.81
3562.79 5215.79 1678.6
3208.15 5817.43 1726.12
3918.51 5817.43 1838.5
1769.92 3804.98 2594.79
228.801 3069.61 2533.86
-80.4069 2376.59 2419.56
1416.87 4004.09 3247.13
2122.97 4004.09 3247.13
1769.92 3399.65 3247.13
1031.99 4221.8 2567.16
2126.49 4807.92 2593.73
3626.35 4479.8 2541.53
710.768 4004.09 3247.13
1063.82 4608.54 3247.13
3248.09 2634.31 2530.84
1063.82 3399.65 3247.13
1465.18 3165.35 2526.43
477.123 3735.23 2625.63
2122.97 1991.64 2603.79
1439.61 2403.15 2590.28
-792.533 5817.43 2255.93
-1140.63 5020.32 2212.56
-1462.98 3168.15 2416.62
-457.351 5097.18 2470
710.768 2795.2 3247.13
-1054.49 4608.54 3247.13
-776.313 4419.92 2246.87
1769.92 4608.54 3247.13
1120.41 4980.82 2582.03
2122.97 2795.2 3247.13
1416.87 2795.2 3247.13
2476.03 4608.54 3247.13
3182.13 4608.54 3247.13
2829.08 4004.09 3247.13
3000.25 4876.04 2579.44
-1548.55 4435.3 2370.16
-1760.59 5147.49 2577.19
357.716 5817.43 3247.13
710.768 5212.98 3247.13
4.66476 5212.98 3247.13
357.716 5013.87 2545.16
-77.5901 5817.43 2351.87
643.642 5817.43 2438.34
675.562 2410.43 2547.33
-1407.54 4004.09 3247.13
-1054.49 3399.65 3247.13
-1760.59 3399.65 3247.13
-1735.3 3790.2 2646.49
1416.87 5212.98 3247.13
2122.61 5817.43 2545.49
1374.52 5817.43 2507.63
1769.92 5817.43 3247.13
2122.97 5212.98 3247.13
2829.08 5212.98 3247.13
-752.432 3188.26 2297
-1122.25 3806.66 2212.46
357.716 4608.54 3247.13
-1407.54 2795.2 3247.13
-2113.64 2795.2 3247.13
-2056.02 2578.82 2231.16
2502.85 3917.86 2586.73
-2113.64 4004.09 3247.13
1063.82 5817.43 3247.13
-1054.49 2596.08 2633.31
-1760.59 4608.54 3247.13
100.169 4319.04 2451.82
2846.71 1981.34 2639.81
2173.29 3171.14 2598.59
-348.387 4608.54 3247.13
-1407.54 5212.98 3247.13
-701.438 5212.98 3247.13
-1054.49 5817.43 3247.13
4.66476 2795.2 3247.13
3182.13 3399.65 3247.13
3520.03 3661.45 2566.58
-1506.79 5817.43 2152.7
-462.391 3827.82 2459.6
3535.18 5212.98 3247.13
357.716 3399.65 3247.13
-348.387 5817.43 3247.13
2878.83 5817.43 2536.27
-2466.7 3399.65 3247.13
-701.438 4004.09 3247.13
3630.18 5817.43 2476.36
3535.18 4004.09 3247.13
-2376.21 3047.17 2645.91
-1760.59 5817.43 3247.13
4.66476 4004.09 3247.13
2476.03 5817.43 3247.13
-701.438 2795.2 3247.13
-348.387 3399.65 3247.13
2476.03 3399.65 3247.13
3182.13 5817.43 3247.13
351.351 3411.14 824.968
1063.81 3410.99 893.276
707.401 4012.67 862.287
1778.26 5817.43 939.669
2136 5215.75 942.721
1777.89 3410.61 935.657
2135.21 2808.7 941.014
-358.872 3411.15 735.566
-3.52227 4012.72 778.461
-712.13 4012.66 677.323
1064.23 2207.49 879.724
1420.68 2809.08 911.755
-0.537066 5215.76 756.004
352.748 4614.23 813.91
709.509 5215.75 843.86
-356.393 4614.19 717.508
-709.103 5215.78 656.744
353.955 5817.43 804.29
2493.43 5817.43 957.815
1064.32 4614.16 890.748
1778.38 4614.02 937.724
1421.65 5215.73 911.485
2135.65 4012.15 948.11
1420.77 4012.48 921.204
707.817 2809.47 855.316
352.824 2207.88 809.714
-3.54273 2809.57 778.45
3562.82 5215.83 878.594
3207.36 4613.94 915.763
1064.97 5817.43 884.253
2850.7 4012 937.2
3564.48 4012.31 893.167
-355.515 5817.43 711.432
-713.143 2809.55 684.915
-1067.09 3411.09 631.384
-1063.91 4614.14 610.407
2493.35 4613.85 946.275
2850.27 5215.82 930.772
3208.1 5817.43 926.12
-1063.98 5817.43 611.162
2493.08 3410.29 944.484
2850.78 2808.65 935.343
1777.56 2207.1 927.946
2492.97 2207.03 940.482
3208.04 3410.38 918.305
1869.69 2582.51 -127.666
1469.89 3363.51 87.6686
2394.69 3065.69 230.892
752.475 3111.41 -167.011
76.2963 3603.52 144.311
2152.65 3623.56 -443.721
3118.34 4220.7 -178.319
2949.11 3523.59 -555.425
2413.08 4580.96 -190.813
1416.87 5817.43 -1233.12
2122.97 5817.43 -1233.12
1841.07 5817.43 -280.366
2098.44 4847.08 -867.212
2151.11 5817.43 347.23
1468.22 5817.43 312.073
1819.45 5003.56 119.573
3127.49 1817.34 -814.836
2122.97 1991.64 -1200.79
2476.03 1352.93 -1241.62
2482.58 2200.54 -585.434
1416.87 5212.98 -1837.56
2122.97 5212.98 -1837.56
-361.643 4210.95 -993.089
-701.438 4004.09 -1837.56
4.66476 3598.76 -1237.7
-1029.84 3790.58 -1173.76
1769.92 3399.65 -1837.56
1769.92 2825.77 -1179.74
1507.39 3651.63 -1038.5
1029.65 3014.28 -1252.67
226.159 4583.59 -345.12
559.656 4321.16 -1095.32
-348.387 5069.57 -1089.7
-430.395 4292.02 98.442
710.768 5817.43 -1233.12
4.66476 5817.43 -1233.12
357.716 5817.43 -1837.56
4.66476 5212.98 -1837.56
2482.78 5184.18 317.715
710.768 4004.09 -1837.56
1276.19 4327.25 -1204.24
3252.23 4948.47 170.543
2798.25 5188.33 -313.382
2122.97 4004.09 -1837.56
1416.87 4004.09 -1837.56
776.704 5817.43 246.363
935.485 4879.51 44.9701
-59.5521 5125.1 29.7028
430.839 3762.27 -507.656
2858.3 3628.95 311.216
1977.53 4314.43 315.271
2476.03 3804.98 -1150.26
710.768 5212.98 -1837.56
1063.82 4917.23 -840.725
178.932 5230.19 -639.208
2829.08 2795.2 -1837.56
2476.03 2190.75 -1837.56
3182.13 2190.75 -1837.56
2829.08 2303.56 -1234.24
-843.228 3735.43 -12.4278
2824.11 5817.43 340.845
1179.95 5817.43 -325.817
-192.615 5817.43 -484.588
1504.05 4219.75 -217.379
567.703 4285.31 212.296
2122.97 2795.2 -1837.56
2816.4 2414.24 42.6743
3493.7 3392.36 30.2573
1063.82 3399.65 -1837.56
2476.03 3399.65 -1837.56
3182.13 3399.65 -1837.56
2476.03 2854.71 -937.063
357.716 4608.54 -1837.56
769.373 2413.47 227.574
1063.82 4608.54 -1837.56
2829.08 1586.31 -1837.56
-471.374 3159.78 -328.9
500.053 5817.43 -396.648
357.716 3399.65 -1837.56
1769.92 5817.43 -1837.56
1063.82 5817.43 -1837.56
2829.08 5817.43 -1233.12
2829.08 4807.65 -1161.17
3501.16 5817.43 290.42
357.716 2994.32 -1052.94
710.768 2389.87 -514.5
-701.438 5212.98 -1837.56
-348.387 4608.54 -1837.56
3467.06 2837.42 -719.337
3535.18 3598.76 -1195.89
-602.135 4821.4 -329.083
-889.079 5817.43 -582.888
-701.438 5817.43 -1233.12
-625.433 5817.43 65.5645
-1241.24 4367.08 -123.779
-1407.54 4004.09 -1837.56
-1092.66 4519.81 -1109.17
1416.87 2795.2 -1837.56
-348.387 5817.43 -1837.56
1769.92 4608.54 -1837.56
3535.18 2795.2 -1837.56
-1054.49 4608.54 -1837.56
77.3034 5817.43 161.279
3396.65 4807.17 -549.335
2476.03 4608.54 -1837.56
4.66476 4004.09 -1837.56
2829.08 4004.09 -1837.56
2481.78 5817.43 -269.74
3117.17 5817.43 -294.856
-501.05 2489.44 91.8904
164.359 2758.54 48.9367
710.768 2795.2 -1837.56
2544.05 1402.33 -457.841</DataArray>
            </Points>
            <CellData>
                <DataArray type="UInt64" Name="partition" format="ascii">
6
6
6
6
6
6
6
6
6
6
6
6
6
6
6
6
6
6
6
6
6
6
6
6
6
6
6
6
6
6
6
6
6
6
6
6
6
6
6
6
6
6
6
6
6
6
6
6
6
6
6
6
6
6
6
6
6
6
6
6
6
6
6
6
6
6
6
6
6
6
6
6
6
6
6
6
6
6
6
6
6
6
6
6
6
6
6
6
6
6
6
6
6
6
6
6
6
6
6
6
6
6
6
6
6
6
6
6
6
6
6
6
6
6
6
6
6
6
6
6
6
6
6
6
6
6
6
6
6
6
6
6
6
6
6
6
6
6
6
6
6
6
6
6
6
6
6
6
6
6
6
6
6
6
6
6
6
6
6
6
6
6
6
6
6
6
6
6
6
6
6
6
6
6
6
6
6
6
6
6
6
6
6
6
6
6
6
6
6
6
6
6
6
6
6
6
6
6
6
6
6
6
6
6
6
6
6
6
6
6
6
6
6
6
6
6
6
6
6
6
6
6
6
6
6
6
6
6
6
6
6
6
6
6
6
6
6
6
6
6
6
6
6
6
6
6
6
6
6
6
6
6
6
6
6
6
6
6
6
6
6
6
6
6
6
6
6
6
6
6
6
6
6
6
6
6
6
6
6
6
6
6
6
6
6
6
6
6
6
6
6
6
6
6
6
6
6
6
6
6
6
6
6
6
6
6
6
6
6
6
6
6
6
6
6
6
6
6
6
6
6
6
6
6
6
6
6
6
6
6
6
6
6
6
6
6
6
6
6
6
6
6
6
6
6
6
6
6
6
6
6
6
6
6
6
6
6
6
6
6
6
6
6
6
6
6
6
6
6
6
6
6
6
6
6
6
6
6
6
6
6
6
6
6
6
6
6
6
6
6
6
6
6
6
6
6
6
6
6
6
6
6
6
6
6
6
6
6
6
6
6
6
6
6
6
6
6
6
6
6
6
6
6
6
6
6
6
6
6
6
6
6
6
6
6
6
6
6
6
6
6
6
6
6
6
6
6
6
6
6
6
6
6
6
6
6
6
6
6
6
6
6
6
6
6
6
6
6
6
6
6
6
6
6
6
6
6
6
6
6
6
6
6
6
6
6
6
6
6
6
6
6
6
6
6
6
6
6
6
6
6
6
6
6
6
6
6
6
6
6
6
6
6
6
6
6
6
6
6
6
6
6
6
6
6
6
6
6
6
6
6
6
6
6
6
6
6
6
6
6
6
6
6
6
6
6
6
6
6
6
6
6
6
6
6
6
6
6
6
6
6
6
6
6
6
6
6
6
6
6
6
6
6
6
6
6
6
6
6
6
6
6
6
6
6
6
6
6
6
6
6
6
6
6
6
6
6
6
6
6
6
6
6
6
6
6
6
6
6
6
6
6
6
6
6
6
6
6
6
6
6
6
6
6
6
6
6
6
6
6
6
6
6
6
6
6
6
6
6
6
6
6
6
6
6
6
6
6
6
6
6
6
6
6
6
6
6
6
6
6
6
6
6
6
6
6
6
6
6
6
6
6
6
6
6
6
6
6
6
6
6
6
6
6
6
6
6
6
6
6
6
6
6
6
6
6
6
6
6
6
6
6
6
6
6
6
6
6
6
6
6
6
6
6
6
6
6
6
6
6
6
6
6
6
6
6
6
6
6
6
6
6
6
6
6
6
6
6
6
6
6
6
6
6
6
6
6
6
6
6
6
6
6
6
6
6
6
6
6
6
6
6
6
6
6
6
6
6
6
6
6
6
6
6
6
6
6
6
6
6
6
6
6
6
6
6
6
6
6
6
6
6
6
6
6
6
6
6
6
6
6
6
6
6
6
6
6
6
6
6
6
6
6
6
6
6
6
6
6
6
6
6
6
6
6
6
6
6
6
6
6
6
6
6
6
6
6
6
6
6
6
6
6
6
6
6
6
6
6
6
6
6
6
6
6
6
6
6
6
6
6
6
6
6
6
6
6
6
6
6
6
6
6
6
6
6
6
6
6
6
6
6
6
6
6
6
6
6
6
6
6
6
6
6
6
6
6
6
6
6
6
6
6
6
6
6
6
6
6
6
6
6
6
6
6
6
6
6
6
6
6
6
6
6
6
6
6
6
6
6
6
6
6
6
6
6
6
6
6
6
6
6
6
6
6
6
6
6
6
6
6
6
6
6
6
6
6
6
6
6
6
6
6
6
6
6
6
6
6
6
6
6
6
6
6
6
6
6
6
6
6
6
6
6
6
6
6
6
6
6
6
6
6
6
6
6
6
6
6
6
6
6
6
6
6
6
6
6
6
6
6
6
6
6
6
6
6
6
6
6
6
6
6
6
6
6
6
6
6
6
6
6
6
6
6
6
6
6
6
6
6
6
6
6
6
6
6
6
6
6
6
6
6
6
6
6
6
6
6
6
6
6
6
6
6
6
6
6
6
6
6
6
6
6
6
6
6
6
6
6
6
6
6
6
6
6
6
6
6
6
6
6
6
6
6
6
6
6
6
6
6
6
6
6
6
6
6
6
6
6
6
6
6
6
6
6
6
6
6
6
6
6
6
6
6
6
6
6
6
6
6
6
6
6
6
6
6
6
6
6
6
6
6
6
6
6
6
6
6
6
6
6
6
6
6
6
6
6
6
6
6
6
6
6
6
6
6
6
6
6
6
6
6
6
6
6
6
6
6
6
6
6
6
6
6
6
6
6
6
6
6
6
6
6
6
6
6
6
6
6
6
6
6
6
6
6
6
6
6
6
6
6
6
6
6
6
6
6
6
6
6
6
6
6
6
6
6
6
6
6
6
6
6
6
6
6
6
6
6
6
6
6
6
6
6
6
6
6
6
6
6
6
6
6
6
6
6
6
6
6
6
6
6
6
6
6
6
6
6
6
6
6
6
6
6
6
6
6
6
6
6
6
6
6
6
6
6
6
6
6
6
6
6
6
6
6
6
6
6
6
6
6
6
6
6
6
6
6
6
6
6
6
6
6
6
6
6
6
6
6
6
6
6
6
6
6
6
6
6
6
6
6
6
6
6
6
6
6
6
6
6
6
6
6
6
6
6
6
6
6
6
6
6
6
6
6
6
6
6
6
6
6
6
6
6
6
6
6
6
6
6
6
6
6
6
6
6
6
6
6
6
6
6
6
6
6
6
6
6
6
6
6
6
6
6
6
6
6
6
6
6
6
6
6
6
6
6
6
6
6
6
6
6
6
6
6
6
6
6
6
6
6
6
6
6
6
6
6
6
6
6
6
6
6
6
6
6
6
6
6
6
6
6
6
6
6
6
6
6
6
6
6
6
6
6
6
6
6
6
6
6
6
6
6
6
6
6
6
6
6
6
6
6
6
6
6
6
6
6
6
6
6
6
6
6
6
6
6
6
6
6
6
6
6
6
6
6
6
6
6
6
6
6
6
6
6
6
6
6
6
6
6
6
6
6
6
6
6
6
6
6
6
6
6
6
6
6
6
6
6
6
6
6
6
6
6
6
6
6
6
6
6
6
6
6
6
6
6
6
6
6
6
6
6
6
6
6
6
6</DataArray>
                <DataArray type="UInt64" Name="region" format="ascii">
0
0
0
0
0
0
0
0
0
0
0
0
0
0
0
0
0
0
0
0
0
0
0
0
0
0
0
0
0
0
0
0
0
0
0
0
0
0
0
0
0
0
0
0
0
0
0
0
0
0
0
0
0
0
0
0
0
0
0
0
0
0
0
0
0
0
0
0
0
0
0
0
0
0
0
0
0
0
0
0
0
0
0
0
0
0
0
0
0
0
0
0
0
0
0
0
0
0
0
0
0
0
0
0
0
0
0
0
0
0
0
0
0
0
0
0
0
0
0
0
0
0
0
0
0
0
0
0
0
0
0
0
0
0
0
0
0
0
0
0
0
0
0
0
0
0
0
0
0
0
0
0
0
0
0
0
0
0
0
0
0
0
0
0
0
0
0
0
0
0
0
0
0
0
0
0
0
0
0
0
0
0
0
0
0
0
0
0
0
0
0
0
0
0
0
0
0
0
0
0
0
0
0
0
0
0
0
0
0
0
0
0
0
0
0
0
0
0
0
0
0
0
0
0
0
0
0
0
0
0
0
0
0
0
0
0
0
0
0
0
0
0
0
1
1
1
1
1
1
1
1
1
1
1
1
1
1
1
1
1
1
1
1
1
1
1
1
1
1
1
1
1
1
1
1
1
1
1
1
1
1
1
1
1
1
1
1
1
1
1
1
1
1
1
1
1
1
1
1
1
1
1
1
1
1
1
1
1
1
1
1
1
1
1
1
1
1
1
1
1
1
1
1
1
1
1
1
1
1
1
1
1
1
1
1
1
1
1
1
1
1
1
1
1
1
1
1
1
1
1
1
1
1
1
1
1
1
1
1
1
1
1
1
1
1
1
1
1
1
1
1
1
1
1
1
1
1
1
1
1
1
1
1
1
1
1
1
1
1
1
1
1
1
1
1
1
1
1
1
1
1
1
1
1
1
1
1
1
1
1
1
1
1
1
1
1
1
1
1
1
1
1
1
1
1
1
1
1
1
1
1
1
1
1
1
1
1
1
1
1
1
1
1
1
1
1
1
1
1
1
1
1
1
1
1
1
1
1
1
1
1
1
1
1
1
1
1
1
1
1
1
1
1
1
1
1
1
1
1
1
1
1
1
1
1
1
1
1
1
1
1
1
1
1
1
1
1
1
1
1
1
1
1
1
1
1
1
1
1
1
1
1
1
1
1
1
1
1
1
1
1
1
1
1
1
1
1
1
1
1
1
1
1
1
1
1
1
1
1
1
1
1
1
1
1
1
1
1
1
1
1
1
1
1
1
1
1
1
1
1
1
1
1
1
1
1
1
1
1
1
1
1
1
1
1
1
1
1
1
1
1
1
1
1
1
1
1
1
1
1
1
1
1
1
1
1
1
1
1
1
1
1
1
1
1
1
1
1
1
1
1
1
1
1
1
1
1
1
1
1
1
1
1
1
1
1
1
1
1
1
1
1
1
1
1
1
1
1
1
1
1
1
1
1
1
1
1
2
2
2
2
2
2
2
2
2
2
2
2
2
2
2
2
2
2
2
2
2
2
2
2
2
2
2
2
2
2
2
2
2
2
2
2
2
2
2
2
2
2
2
2
2
2
2
2
2
2
2
2
2
2
2
2
2
2
2
2
2
2
2
2
2
2
2
2
2
2
2
2
2
2
2
2
2
2
2
2
2
2
2
2
2
2
2
2
2
2
2
2
2
2
2
2
2
2
2
2
2
2
2
2
2
2
2
2
2
2
2
2
2
2
2
2
2
2
2
2
2
2
2
2
2
2
2
2
2
2
2
2
2
2
2
2
2
2
2
2
2
2
2
2
2
2
2
2
2
2
2
2
2
2
2
2
2
2
2
2
2
2
2
2
2
2
2
2
2
2
2
2
2
2
2
2
2
2
2
2
2
2
2
2
2
2
2
2
2
2
2
2
2
2
2
2
2
2
2
2
2
2
2
2
2
2
2
2
2
2
2
2
2
2
2
3
3
3
3
3
3
3
3
3
3
3
3
3
3
3
3
3
3
3
3
3
3
3
3
3
3
3
3
3
3
3
3
3
3
3
3
3
3
3
3
3
3
3
3
3
3
3
3
3
3
3
3
3
3
3
3
3
3
3
3
3
3
3
3
3
3
3
3
3
3
3
3
3
3
3
3
3
3
3
3
3
3
3
3
3
3
3
3
3
3
3
3
3
3
3
3
3
3
3
3
3
3
3
3
3
3
3
3
3
3
3
3
3
3
3
3
3
3
3
3
3
3
3
3
3
3
3
3
3
3
3
3
3
3
3
3
3
3
3
3
3
3
3
3
3
3
3
3
3
3
3
3
3
3
3
3
3
3
3
3
3
3
3
3
3
3
3
3
3
3
3
3
3
3
3
3
3
3
3
3
3
3
3
3
3
3
3
3
3
3
3
3
3
3
3
3
3
3
3
3
3
3
3
3
3
3
3
3
3
3
3
3
3
3
3
3
3
3
3
3
3
3
3
3
3
3
3
3
3
3
3
3
3
3
3
3
3
3
3
3
3
3
3
3
3
3
3
3
3
3
3
3
3
3
3
3
3
3
3
3
3
3
3
3
3
3
3
3
3
3
3
3
3
3
3
3
3
3
3
3
3
3
3
3
3
3
3
3
3
3
3
3
3
3
3
3
3
3
3
3
3
3
3
3
3
3
3
3
3
3
3
3
3
3
3
3
3
3
3
3
3
3
3
3
3
3
3
3
3
3
3
3
3
3
3
3
3
3
3
3
3
3
3
3
3
3
3
3
3
3
3
3
3
3
3
3
3
3
3
3
3
3
3
3
3
3
3
3
3
3
3
3
3
3
3
3
3
3
3
3
3
3
3
3
3
3
3
3
3
3
3
3
3
3
3
3
3
3
3
3
3
3
3
3
3
3
3
3
3
3
3
3
3
3
3
3
3
3
3
3
3
3
3
3
3
3
3
3
3
3
3
3
3
3
3
3
3
3
3
3
3
3
3
3
3
3
3
3
3
3
3
3
3
3
3
3
3
3
3
3
3
3
3
3
3
3
3
3
3
3
3
3
3
3
3
3
3
3
3
3
3
3
3
3
3
3
3
3
3
3
3
3
3
3
3
3
3
3
3
3
3
3
3
3
3
3
3
3
3
3
4
4
4
4
4
4
4
4
4
4
4
4
4
4
5
5
5
5
5
5
5
5
5
5
5
5
6
6
6
6
6
6
6
6
6
6
6
6
6
6
6
6
6
6
6
6
6
6
6
6
6
6
6
6
6
6
6
6
6
6
6
6
6
6
6
6
6
6
7
7
7
7
7
7
7
7
7
7
7
7
7
7
7
7
7
7
7
7
7
7
7
7
7
7
7
7
7
7
7
7
7
7
7
7
7
7
7
7
7
7
7
7
7
7
7
20
20
20
20
20
20
20
20
20
20
20
20
20
20
20
20
20
20
20
20
20
20
20
20
20
20
20
20
20
20
20
20
20
20
20
20
20
20
20
20
20
20
20
20
20
20
20
20
20
20
20
20
20
20
20
20
20
20
20
20
20
20
20
20
20
20
20
20
20
20
20
20</DataArray>
                <DataArray type="UInt64" Name="original_index" format="ascii">
6
14
16
23
41
45
60
65
67
69
74
75
77
78
79
81
91
95
102
103
104
109
130
131
132
137
144
145
150
151
164
168
178
179
181
190
228
234
365
433
455
466
477
482
484
495
557
570
571
599
612
617
618
620
624
631
633
634
638
640
658
659
660
671
672
677
678
683
684
685
686
687
688
689
690
691
692
693
694
695
696
698
699
702
703
704
705
707
708
709
711
712
714
716
717
718
720
721
722
723
724
725
726
727
728
729
731
732
733
734
735
736
737
738
739
743
744
745
746
747
748
749
750
751
752
753
754
755
757
759
760
761
762
763
765
766
767
768
769
770
771
772
773
774
779
781
782
783
784
787
788
790
791
792
793
794
795
797
798
799
800
801
802
804
809
810
812
813
814
815
816
817
818
822
823
824
825
827
830
831
832
833
834
835
836
844
852
853
859
860
862
865
866
868
881
882
883
907
911
913
1184
1329
1479
1514
1553
1555
1560
1564
1565
1573
1574
1578
1579
1580
1581
1582
1586
1591
1593
1605
1609
1612
1615
1616
1620
1621
1622
1623
1624
1625
1626
1627
1628
1629
1630
1631
1632
1637
1639
1643
1645
1648
1649
2079
2103
2116
2121
2137
2150
2163
2177
2199
2207
2227
2232
2250
2285
2291
2295
2296
2307
2323
2333
2343
2347
2359
2364
2366
2368
2394
2397
2406
2436
2440
2442
2444
2465
2466
2477
2482
2491
2492
2507
2508
2515
2534
2567
2578
2582
2588
2596
2615
2621
2638
2647
2648
2667
2675
2700
2714
2721
2734
2736
2737
2745
2746
2747
2753
2758
2759
2784
2793
2794
2802
2814
2838
2842
2843
2844
2861
2863
2866
2868
2925
2931
2960
2979
2982
2988
2990
2997
3000
3008
3011
3023
3024
3035
3040
3044
3046
3049
3067
3073
3074
3080
3087
3088
3097
3104
3105
3120
3122
3126
3137
3148
3158
3168
3179
3182
3188
3196
3236
3255
3259
3262
3266
3269
3280
3286
3294
3295
3296
3306
3307
3309
3315
3334
3346
3348
3389
3427
3442
3447
3450
3474
3492
3505
3511
3517
3522
3534
3545
3552
3559
3561
3563
3577
3593
3598
3612
3616
3629
3642
3650
3653
3690
3696
3749
3753
3759
3768
3782
3790
3804
3814
3817
3866
3868
3891
3896
3902
3916
3918
3924
3937
3945
3950
3963
3964
3987
3993
4000
4001
4002
4008
4009
4015
4029
4035
4037
4039
4045
4048
4054
4067
4068
4095
4097
4138
4144
4158
4169
4179
4185
4186
4202
4213
4216
4228
4230
4235
4263
4273
4293
4316
4322
4330
4334
4336
4338
4348
4354
4355
4371
4385
4395
4403
4410
4412
4414
4420
4436
4441
4448
4450
4460
4466
4504
4520
4521
4526
4537
4571
4573
4658
4663
4667
4682
4688
4693
4701
4721
4723
4728
4743
4765
4769
4779
4791
4793
4802
4806
4808
4814
4819
4820
4830
4838
4845
4852
4860
4881
4898
4917
4943
4968
4970
4987
5009
5023
5026
5028
5029
5030
5038
5041
5062
5064
5071
5077
5078
5081
5089
5097
5105
5122
5135
5205
5214
5229
5240
5266
5274
5275
5276
5277
5323
5338
5356
5364
5387
5392
5394
5400
5436
5482
5512
5547
5561
5563
5579
5591
5605
5644
5666
5688
5693
5697
5711
5715
5721
5757
5759
5776
5780
5797
5804
5828
5836
5842
5844
5848
5855
5872
5876
5877
5901
5902
5916
5941
5951
5960
5977
5987
5996
6018
6026
6029
6039
6056
6059
6060
6063
6083
6086
6092
6093
6094
6098
6101
6106
6107
6108
6113
6115
6127
6128
6134
6144
6145
6163
6182
6194
6196
6207
6209
6212
6218
6227
6321
6323
6364
6365
6366
6367
6368
6369
6410
6415
6420
6423
6434
6463
6466
6472
6492
6518
6519
6523
6530
6538
6543
6545
6547
6554
6556
6563
6582
6595
6598
6610
6613
6671
6765
6773
6803
6846
6859
6860
6867
6878
6881
6885
6887
6890
6892
6894
6896
6902
6906
6907
6908
6979
6998
7007
7014
7015
7017
7018
7019
7020
7021
7024
7028
7032
7033
7036
7037
7041
7046
7047
7051
7053
7056
7061
7064
7069
7070
7071
7072
7073
7074
7078
7082
7088
7090
7124
7126
7127
7130
7133
7136
7138
7146
7149
7150
7151
7152
7153
7154
7155
7156
7157
7159
7160
7161
7162
7164
7165
7167
7168
7169
7170
7171
7172
7173
7174
7175
7176
7177
7180
7181
7182
7183
7184
7185
7186
7187
7188
7189
7190
7191
7192
7193
7194
7195
7196
7199
7201
7203
7204
7205
7206
7207
7208
7210
7211
7213
7214
7215
7216
7217
7218
7219
7224
7227
7230
7231
7232
7233
7234
7238
7240
7241
7242
7243
7244
7245
7247
7248
7249
7252
7256
7257
7259
7263
7264
7267
7273
7281
7525
7622
7627
7711
7762
7766
7825
7885
7914
7917
7922
7923
7926
7927
7928
7934
7936
7938
7940
7942
7943
7945
7947
7949
7951
7953
7954
7955
7957
7959
7962
7967
7972
7973
7982
7983
7984
7985
7991
8017
8027
8042
8471
8481
8491
8519
8526
8545
8569
8570
8577
8589
8595
8608
8616
8623
8633
8648
8653
8657
8660
8686
8728
8735
8757
8759
8761
8772
8777
8787
8809
8813
8826
8844
8845
8849
8855
8867
8872
8875
8893
8912
8920
8921
8928
8941
8945
8948
8970
8975
8981
8998
8999
9004
9009
9034
9043
9049
9051
9077
9095
9117
9119
9146
9175
9182
9188
9204
9210
9218
9227
9233
9246
9247
9249
9268
9293
9323
9335
9351
9357
9358
9361
9364
9365
9377
9387
9393
9397
9405
9411
9430
9434
9438
9450
9459
9504
9512
9526
9534
9543
9555
9568
9570
9590
9592
9599
9613
9614
9619
9620
9627
9632
9656
9658
9661
9663
9673
9681
9683
9686
9702
9705
9740
9745
9762
9765
9766
9773
9776
9788
9789
9793
9805
9817
9832
9846
9895
9957
9972
9985
9999
10004
10017
10019
10031
10037
10040
10044
10046
10064
10067
10070
10107
10170
10180
10194
10203
10217
10223
10229
10244
10250
10260
10261
10262
10263
10264
10265
10297
10300
10313
10344
10354
10363
10404
10445
10452
10465
10480
10510
10517
10518
10522
10544
10553
10605
10607
10608
10611
10616
10627
10680
10694
10703
10718
10721
10727
10742
10749
10753
10767
10768
10772
10773
10807
10810
10812
10821
10827
10841
10845
10847
10856
10865
10885
10899
10913
10920
10924
10928
10929
10947
10958
10974
10980
10988
10989
10990
11000
11029
11036
11071
11073
11087
11095
11108
11110
11112
11124
11135
11146
11147
11164
11185
11202
11213
11227
11245
11246
11258
11270
11284
11293
11299
11309
11333
11337
11355
11356
11374
11377
11392
11393
11412
11444
11445
11453
11456
11476
11498
11500
11501
11502
11515
11521
11531
11538
11540
11565
11568
11574
11600
11607
11613
11615
11616
11632
11638
11639
11674
11678
11680
11703
11706
11712
11725
11728
11735
11744
11767
11770
11780
11810
11817
11821
11828
11836
11837
11849
11853
11859
11864
11869
11871
11874
11890
11892
11897
11920
11926
11952
11970
11984
11993
11994
12000
12010
12023
12029
12037
12046
12049
12052
12066
12075
12099
12106
12124
12125
12128
12133
12137
12143
12152
12161
12201
12205
12220
12226
12236
12243
12255
12265
12271
12276
12309
12335
12351
12352
12396
12409
12415
12444
12449
12451
12452
12477
12492
12516
12573
12581
12594
12596
12606
12618
12634
12654
12660
12673
12703
12728
12751
12761
12763
12775
12783
12786
12796
12809
12823
12828
12829
12845
12852
12861
12870
12877
12879
12913
12947
12961
12984
12996
13017
13019
13020
13048
13053
13055
13072
13073
13076
13087
13095
13096
13099
13100
13116
13118
13121
13138
13142
13146
13150
13156
13157
13178
13205
13256
13259
13260
13261
13262
13263
13265
13270
13348
13352
13364
13365
13366
13367
13368
13369
13370
13371
13372
13373
13378
13398
13399
13400
13401
13402
13403
13405
13406
13414
13415
13416
13417
13418
13419
13420
13421
13475
13476
13477
13478
13483
13486
13488
13489
13490
13491
13494
13496
13497
13498
13499
13500
13502
2075
2076
2077
2078
2079
2080
2081
2082
2083
2084
2085
2086
2087
2088
2089
2090
2091
2097
2098
2099
2100
2101
2104
2105
2106
2107
2111
2115
2132
2175
2176
2177
2178
2179
2180
2181
2182
2183
2184
2186
2197
2198
2199
2243
2244
2245
2246
2247
2248
2249
2250
2251
2252
2253
2254
2272
2273
2274
2275
2276
2277
2278
2332
2336
2337
2341
2342
2345
2346
2349
2352
2354
2361
2365
2366
2368
2370
2372
2373
2374
2376
2378
2379
2380
2381
2382
2383
2384
2385
2387
2388
2391
2393
2395
2396
2398
2401
2775
2777
2779
2780
2782
2816
2817
2818
2819
2820
2821
2822
2823
2824
2825
2826
2827
2828
2829
2843
2849
2850
2851
2852
2854
2938
2941
2942
2943
2944
2945
3021
3025
3026
3027
3028
3029
3030
3031
3032
3033
3034
3035
3036
3037
3038
3039
3881
3884
3885
4112
4113
4114
4115
4116
4117
4118
4119
4120
4121
4122
4123
4124
4125
4126
4127
4128
4129
4130
4131
4132
4133
4134
4135
4137
4138
4139
4140
4141
4142
4143
4144
4145
4146
4147
4148
4149
4150
4151
4152
4153
4154
4155
4156
4157
4158
4159
4161
4162
4175
4197
4198
4199
4200
4201
4202
4203
4204
4205
4206
4207
4208
4209
4210
4267
4268
4269
4270
4272</DataArray>
            </CellData>
            <Cells>
                <DataArray type="UInt64" Name="connectivity" format="ascii">
0 1 2 3 
4 5 6 7 
8 9 10 11 
12 13 14 15 
16 17 18 19 
20 21 22 23 
24 25 26 27 
28 29 30 31 
30 12 13 32 
33 5 34 19 
5 0 34 19 
35 8 11 36 
37 38 21 22 
39 40 41 42 
12 30 13 15 
43 12 30 32 
44 45 46 47 
25 24 48 27 
38 20 21 22 
16 15 49 18 
12 13 50 27 
16 33 51 19 
24 25 48 52 
6 34 53 7 
5 54 34 7 
13 26 50 27 
1 44 3 55 
40 56 41 17 
12 13 27 14 
5 54 33 34 
54 33 34 51 
1 44 55 57 
1 44 57 58 
43 12 32 50 
59 60 57 61 
17 18 19 62 
5 0 19 62 
35 63 64 36 
26 25 50 27 
65 35 64 36 
5 34 6 7 
58 66 67 68 
43 28 29 30 
69 70 8 9 
45 41 46 47 
19 0 2 62 
71 35 63 64 
25 24 26 52 
71 65 35 64 
72 73 74 51 
44 59 55 57 
8 69 11 75 
63 35 10 11 
75 76 77 36 
65 76 35 36 
8 69 9 11 
78 16 33 51 
17 15 16 18 
70 69 75 79 
35 8 10 11 
71 80 65 64 
20 81 38 82 
14 12 15 49 
13 56 27 14 
40 56 39 41 
76 8 75 31 
9 69 83 11 
8 76 75 36 
41 40 17 2 
29 43 30 32 
63 35 11 36 
70 69 8 75 
84 24 52 85 
14 15 17 18 
43 12 28 30 
8 70 75 31 
28 79 29 31 
56 40 14 17 
11 8 75 36 
79 70 29 31 
75 70 79 31 
43 28 79 29 
28 75 79 31 
0 4 6 86 
1 45 58 68 
56 24 13 27 
13 24 26 27 
41 42 46 47 
30 28 31 87 
84 88 82 85 
56 14 15 17 
13 56 14 15 
77 87 49 78 
12 13 32 50 
13 26 32 50 
25 89 48 52 
89 84 48 52 
84 24 48 52 
84 52 88 85 
73 77 90 78 
76 87 77 73 
87 77 73 78 
24 48 27 39 
56 24 27 39 
91 39 41 42 
55 1 57 86 
40 14 17 18 
73 16 78 51 
27 56 39 14 
56 40 39 14 
87 28 77 49 
35 76 8 36 
33 5 19 62 
0 2 62 3 
33 34 51 19 
84 20 91 92 
87 16 49 78 
56 24 39 92 
39 91 41 92 
56 39 41 92 
93 37 21 22 
24 84 48 92 
48 84 91 92 
24 48 39 92 
39 48 91 92 
16 49 78 18 
54 74 51 94 
74 72 51 94 
37 81 95 38 
16 87 73 78 
15 14 49 18 
78 16 18 33 
75 76 31 77 
28 75 31 77 
31 76 87 77 
28 31 87 77 
64 65 36 90 
17 40 18 62 
96 97 98 94 
65 72 73 90 
76 77 36 90 
65 76 36 90 
76 65 73 90 
77 76 73 90 
15 87 16 49 
12 28 30 49 
30 28 87 49 
12 30 15 49 
15 30 87 49 
33 54 74 51 
5 0 62 3 
78 33 74 51 
73 78 74 51 
72 73 90 74 
90 73 78 74 
54 97 74 94 
97 72 74 94 
99 97 54 94 
97 99 98 94 
34 54 51 94 
97 96 72 94 
16 18 33 19 
18 33 19 62 
57 59 61 58 
72 97 74 100 
90 72 74 100 
101 80 64 100 
96 97 72 100 
80 96 72 100 
80 65 64 100 
64 65 90 100 
80 72 65 100 
65 72 90 100 
61 58 67 68 
41 40 2 46 
17 19 2 62 
40 17 2 62 
40 41 42 46 
45 41 2 46 
1 2 3 46 
44 1 3 46 
2 40 62 46 
2 62 3 46 
45 1 44 46 
1 45 2 46 
5 0 3 4 
0 1 3 86 
3 1 55 86 
5 0 4 6 
0 5 34 6 
99 98 94 53 
3 55 4 86 
0 3 4 86 
34 54 53 7 
54 99 94 53 
54 99 53 7 
34 54 94 53 
101 80 100 102 
96 97 100 102 
80 96 100 102 
44 45 47 58 
89 84 52 88 
1 45 44 58 
81 20 38 22 
103 57 61 68 
61 57 58 68 
44 59 57 58 
66 45 93 68 
45 47 58 66 
21 66 22 23 
20 92 38 21 
104 67 93 68 
58 45 66 68 
57 1 58 68 
103 61 67 68 
103 67 104 68 
67 66 93 68 
66 93 21 22 
38 82 105 85 
45 66 93 21 
37 81 38 22 
82 88 106 85 
84 20 92 85 
81 38 82 105 
20 91 92 23 
20 92 21 23 
45 66 21 23 
45 47 66 23 
91 41 92 23 
92 41 21 23 
41 45 21 23 
45 41 47 23 
41 42 47 23 
41 91 42 23 
88 107 82 106 
38 20 82 85 
81 95 38 105 
92 20 38 85 
20 84 82 85 
107 82 106 105 
24 84 92 85 
88 52 106 85 
82 106 105 85 
62 108 46 40 
54 5 109 110 
111 112 113 108 
108 39 114 115 
81 82 20 116 
111 117 118 114 
66 47 58 119 
109 120 121 122 
44 55 123 124 
49 18 14 114 
69 75 125 126 
117 111 120 114 
101 102 100 127 
77 49 28 128 
120 129 109 121 
128 130 126 131 
118 132 114 133 
134 135 121 124 
136 137 138 139 
130 140 141 126 
142 143 144 145 
146 43 147 145 
5 7 148 110 
149 150 151 152 
14 12 145 133 
118 153 132 133 
154 155 153 156 
89 154 48 84 
136 157 158 115 
74 100 159 160 
39 14 40 114 
153 154 156 157 
102 97 100 159 
143 118 161 145 
162 163 127 164 
132 114 133 115 
3 44 121 124 
155 154 153 115 
112 136 165 115 
27 50 12 133 
75 128 126 131 
140 36 126 131 
64 36 140 160 
166 149 151 152 
155 167 147 133 
138 137 116 139 
97 99 54 110 
27 155 133 115 
42 108 165 115 
84 91 139 115 
100 101 127 160 
36 63 140 126 
127 150 168 159 
12 147 145 133 
169 130 140 141 
145 49 114 170 
59 123 171 172 
75 77 128 131 
161 173 145 170 
62 18 33 122 
120 111 113 108 
20 84 91 139 
78 18 170 122 
162 127 168 164 
174 175 130 126 
167 155 153 133 
125 174 176 141 
75 79 125 128 
148 177 109 110 
178 138 179 165 
5 7 4 148 
62 33 5 109 
114 117 170 122 
111 118 132 114 
138 179 165 116 
23 91 165 139 
69 125 180 126 
83 11 69 180 
74 33 181 109 
79 28 146 128 
179 23 165 116 
132 112 108 115 
77 170 128 131 
127 101 152 160 
111 132 108 114 
168 97 159 110 
55 3 4 124 
167 142 147 143 
148 3 121 124 
180 125 176 141 
36 90 131 160 
90 77 36 131 
137 182 116 139 