<?xml version="1.0" encoding="UTF-8"?>
<VTKFile type="UnstructuredGrid" version="0.1" byte_order="LittleEndian">
    <UnstructuredGrid>
        <Piece NumberOfPoints="372" NumberOfCells="1613">
            <PointData>
                <DataArray type="UInt64" Name="original_index" format="ascii" NumberOfComponents="1">
147
728
729
411
789
469
787
726
409
626
963
930
948
886
568
926
609
527
526
473
844
410
59
146
471
842
788
569
612
60
645
929
611
523
524
841
889
572
890
840
590
472
525
408
786
725
570
888
887
571
608
959
925
468
522
470
843
58
145
727
57
144
885
607
567
884
839
960
927
610
928
962
642
412
143
56
521
566
790
407
148
61
913
2279
1996
2355
2380
2179
2122
2205
2346
2049
2048
2197
2247
247
1879
1309
2238
2047
2046
2090
2199
2087
2123
2088
1997
2260
1995
1939
1994
2440
2286
2042
2323
2441
2045
2089
1942
2321
2335
2235
2212
2394
1874
1875
243
1313
1312
2226
1873
1323
2195
2252
1324
1314
1941
2255
2092
2348
2352
2315
1315
2310
1310
1876
2455
2215
1998
1943
2044
1993
2285
1938
2043
1992
1325
1940
2091
2086
2343
2425
2293
1878
474
1937
242
246
1877
245
1311
1936
2180
244
248
1104
1047
1200
1157
1158
1105
1044
1045
225
1102
1101
1155
1103
1273
1241
1199
1236
1202
1156
1239
1203
1159
224
1204
1201
1237
1272
1240
1198
1235
1046
226
1154
1238
227
1269
1106
1271
1297
228
1048
1242
229
1395
2642
2796
2854
2676
2712
1648
1612
2535
2619
1646
1610
1645
2733
1520
1464
1519
2789
2566
2709
1344
2482
2629
2807
2551
1652
2586
2649
1647
1677
2740
2754
1461
1462
2561
2708
1568
2623
2766
1514
1565
1515
2682
1613
1569
2546
2583
2627
2513
2821
2859
2530
2576
2612
2862
2501
1459
2567
2749
2839
1383
1346
1382
2538
1345
1381
2761
1380
1364
2573
2809
2836
2563
2802
2493
2541
1367
1347
2540
2804
1368
1609
1566
1611
1518
1567
2777
2858
2639
2788
2786
1397
1366
297
2529
1348
2667
2579
1363
1362
1394
1365
1396
1399
300
2716
2589
2690
2772
2785
2751
2799
1614
1570
2500
2795
2755
1460
1296
2720
1343
1463
1516
1649
1676
1393
1379
2853
1690
2658
1678
1517
1608
299
298
1398
2684
1400
1457
293
294
1679
295
1513
1564
1651
1369
2643
2550
1458
296
301
1644
1691</DataArray>
            </PointData>
            <Points>
                <DataArray type="Float64" Name="Points" format="ascii" NumberOfComponents="3">
6037.15 5817.43 1301.46
5686.64 5215.82 1373.67
6391.09 5215.89 1247.84
6391.61 5215.87 1447.12
6041.83 4614.43 1327.07
4629.92 4614.33 1758.62
4629.18 4614.26 1558.9
4273.01 5215.75 1595.59
4981.4 5215.8 1690.03
7423.88 2202.19 1237.06
6740.43 2208.2 1171.75
7094.14 2809.68 1115.98
7423.88 2202.2 1037.05
4630.9 3411.2 1568.61
4631.52 3411.29 1768.56
4276.12 2809.39 1612.85
4984.31 2809.75 1707.87
7799.63 4012.65 1191.22
7098.25 4012.74 1333.01
7448.28 4614.34 1258.44
7097.72 4012.81 1133.09
5687.26 5215.85 1573.12
6037.51 5817.43 1499.45
5332.96 5817.43 1428.26
6042.47 4614.44 1526.94
5690.91 4012.88 1397.69
5336.5 4614.36 1448.84
5338.71 3411.31 1657.75
7094.62 2809.58 1315.89
6740.89 5817.43 1368.81
6740.9 2208.1 1371.63
6392.06 2809.75 1254
6392.59 2809.69 1453.93
4985.37 4012.88 1714.91
5691.56 4012.88 1597.61
4984.68 4012.84 1515.11
6745.72 3411.24 1198.01
7447.83 3411.06 1257.03
7447.35 3411.16 1057.12
4275.8 4012.64 1615.22
8012.76 2563.53 1124.58
6745.94 4614.38 1395.5
6395.69 4012.83 1469.41
4273.5 5215.75 1794.2
3919.4 4614.1 1650.15
3562.79 5215.79 1678.6
6043.52 3411.24 1533.16
6042.94 3411.28 1333.23
5338.07 3411.31 1457.85
6746.25 3411.18 1397.91
4276.73 2809.48 1812.65
3920.56 2207.42 1647.59
3565.08 2808.89 1690.81
3919.91 4614.16 1849.58
4276.51 4012.77 1815.38
5337.28 4614.41 1649.15
6395.12 4012.87 1269.55
5332.73 5817.43 1622.14
4627.73 5817.43 1549.13
4980.87 5215.76 1491.76
4626.76 5817.43 1737.72
3919.49 5817.43 1650.39
3921.02 3410.83 1659.48
3565.49 2809.16 1890.28
3921.71 3410.96 1859.38
3208.04 3410.36 1718.3
3564.48 4012.29 1693.17
4628.46 2207.94 1548.76
4983.75 2809.69 1507.94
5689.42 2809.75 1586.19
5688.84 2809.78 1386.25
6037.76 2208.28 1305.93
4629.01 2207.99 1748.53
7094.66 5215.87 1314.21
3208.15 5817.43 1726.12
3918.51 5817.43 1838.5
3564.89 4012.33 1891.56
3208.31 3410.54 1918
6745.39 4614.43 1195.77
3563.27 5215.71 1880.23
6740.49 5817.43 1169.99
7443.48 5817.43 1233.86
8012.76 2563.55 924.575
4990.54 4891.9 2468.57
4947.39 4004.09 3247.13
4387.7 4415.56 2460.19
5182 3735.8 2579.79
7887.02 2322.57 2244
7418.75 2190.75 3247.13
7065.7 2389.87 2528.7
7542.73 1770.4 2594.82
3182.13 3399.65 3247.13
3888.23 3399.65 3247.13
3888.23 2994.32 2578.23
3520.03 3661.45 2566.58
3888.23 5817.43 3247.13
3535.18 5212.98 3247.13
3630.18 5817.43 2476.36
4004.59 5142.56 2514.92
4594.34 3399.65 3247.13
5300.44 3399.65 3247.13
4947.39 2795.2 3247.13
5300.44 2994.32 2487.34
7065.7 2795.2 3247.13
6712.65 2190.75 3247.13
6359.59 2795.2 3247.13
4241.28 4004.09 3247.13
4217.41 3612.71 2660.76
5653.49 4004.09 3247.13
6006.54 4608.54 3247.13
6359.59 4004.09 3247.13
5835.08 4303.35 2636.11
8124.85 4100.76 2530.34
8124.85 3399.65 3247.13
7602.87 3195.02 2363.7
8187.29 3026.62 2677.01
6006.54 3399.65 3247.13
5653.49 2795.2 3247.13
3888.23 4608.54 3247.13
3626.35 4479.8 2541.53
5908.89 3647.99 2389.28
5828.23 4971.19 2412.89
6712.65 5013.87 2443.57
6432.12 4377.77 2135.52
7065.7 5212.98 3247.13
6359.59 5212.98 3247.13
6712.65 5817.43 3247.13
6499.08 5817.43 2025.72
5788.31 5817.43 2153.59
3248.09 2634.31 2530.84
7771.8 5212.98 3247.13
7771.8 5817.43 2642.68
7999.12 4814.89 2181.07
7418.75 5013.87 2637.34
7065.7 5817.43 2642.68
7205.68 5817.43 1892.23
4594.34 4608.54 3247.13
7215.17 4822.16 1931.91
3535.18 2795.2 3247.13
8321.28 3767.98 1818.53
7583.65 3963.31 1928.48
4586.85 3046.34 2416.51
7911.63 5817.43 1754.27
7507.46 1837.18 1859.43
4357.41 5817.43 2383.82
5653.49 5212.98 3247.13
6392.19 3132.11 2096.4
6110.94 2535.11 2381.38
3535.18 4004.09 3247.13
3182.13 4608.54 3247.13
6712.65 3399.65 3247.13
7065.7 4004.09 3247.13
6918.8 3813.33 2286.41
6712.65 4608.54 3247.13
7418.75 3399.65 3247.13
7771.8 4004.09 3247.13
6359.59 5817.43 2642.68
5300.44 4608.54 3247.13
4241.28 2795.2 3247.13
7771.8 2795.2 3247.13
3000.25 4876.04 2579.44
6907.47 3108.11 2597.03
7418.75 4187.78 2646.15
4241.28 5212.98 3247.13
8149.71 4614.27 1117.13
7418.75 4608.54 3247.13
7418.75 5817.43 3247.13
4594.34 5817.43 3247.13
4947.39 5212.98 3247.13
5300.44 5817.43 3247.13
5076.96 5817.43 2273.74
8124.85 4608.54 3247.13
6864.64 1610.67 2347.45
6006.54 5817.43 3247.13
3182.13 5817.43 3247.13
5336.54 4614.36 648.835
5686.67 5215.82 573.67
4630.89 3411.22 768.61
5690.94 4012.88 597.688
6395.15 4012.87 469.543
6041.86 4614.43 527.061
3562.82 5215.83 878.594
4273.03 5215.76 795.586
3919.67 5817.43 851.535
3919.39 4614.13 850.152
3207.36 4613.94 915.763
4275.79 4012.66 815.223
4629.2 4614.26 758.893
6740.46 2208.19 371.744
7094.16 2809.67 315.972
3921.01 3410.85 859.483
3565.08 2808.91 890.815
6042.97 3411.28 533.227
4984.7 4012.85 715.104
5688.85 2809.79 586.252
6745.75 3411.24 398.006
7097.74 4012.81 333.087
3208.1 5817.43 926.12
7447.37 3411.15 257.119
5338.09 3411.31 657.853
4276.11 2809.41 812.85
6037.77 2208.28 505.929
6392.09 2809.75 453.994
3208.04 3410.38 918.305
2850.78 2808.65 935.343
4980.9 5215.76 691.756
4627.77 5817.43 749.131
3564.48 4012.31 893.167
4983.74 2809.71 707.937
5332.99 5817.43 628.254
3920.55 2207.44 847.59
6745.42 4614.42 395.762
5333.9 2208.26 632.818
6387.88 1606.56 432.775
6037.18 5817.43 501.449
6391.11 5215.88 447.832
7423.88 2202.2 237.049
6740.52 5817.43 369.986
3535.18 5212.98 -1837.56
2829.08 4807.65 -1161.17
3477.91 4375.27 -1154.24
3396.65 4807.17 -549.335
5192.99 3121.4 -258.532
5713.26 3695.82 -122.183
6712.65 2190.75 -1837.56
6359.59 2795.2 -1837.56
6359.59 2389.87 -1121.03
7065.7 2389.87 -1246.03
5300.44 2190.75 -1837.56
4947.39 2795.2 -1837.56
4594.34 2190.75 -1837.56
4947.39 2389.87 -1256.54
7771.8 4004.09 -1837.56
7418.75 4608.54 -1837.56
7065.7 4004.09 -1837.56
7089.87 3612.88 -1232.28
6248.4 2295.66 -298.096
5578.55 2420.21 -25.6919
4187.6 5817.43 204.839
4509.36 5000.31 -55.7509
3252.23 4948.47 170.543
4072.17 5191.47 -631.954
7265.97 1844.97 -797.596
7352.82 1478.96 -1837.56
7556.32 1138.69 -1112.79
6770.38 1751.7 -1289.6
6006.54 2190.75 -1837.56
5653.49 1586.31 -1837.56
6021.01 1710.88 -1168.42
5653.49 2315.29 -1233.82
5300.44 4608.54 -1837.56
6006.54 4608.54 -1837.56
5296.17 5011.38 -1031.51
5815.72 4314.66 -1042.15
6006.54 3399.65 -1837.56
6380.25 3610.83 -1104.09
5653.49 3200.53 -1261.41
3535.18 4004.09 -1837.56
3888.23 3399.65 -1837.56
4241.28 4004.09 -1837.56
3535.18 3598.76 -1195.89
7065.7 2795.2 -1837.56
6712.65 3399.65 -1837.56
7164.78 3069.89 -763.715
6826.07 4269.46 -858.094
8124.85 4203.21 -1234.58
6006.54 2994.32 -687.766
4895.8 4409.24 144.071
5602.86 4400.67 -5.93988
4441.07 2640.07 -513.883
4241.28 3446.64 -962.827
3467.06 2837.42 -719.337
4199.77 3253.56 218.319
4198.85 4409.13 217.383
3888.23 4608.54 -1837.56
4197.32 4383.74 -853.643
4740.75 3689.22 42.0264
3772.02 3848.35 -514.712
5819.58 5817.43 -684.457
5578.45 5817.43 -27.2969
5124.2 5817.43 -559.885
5194.5 5215.96 -159.83
4878.73 5817.43 95.666
4438.57 5817.43 -448.626
4545.1 4985.11 -1173.65
3769.09 5817.43 -356.275
3535.18 5817.43 -1233.12
4544.72 2626.3 185.191
4938.2 1981.56 4.02825
5189 2508.65 -605.737
6090.55 4880.5 -442.357
6006.54 5181.41 -1201.54
7705.59 4828.87 -831.552
8017.5 4205.77 -516.003
5653.49 5817.43 -1233.12
6278.3 5817.43 -155.711
6006.54 1117.42 -693.548
5566.51 1914.21 -593.441
6359.59 5817.43 -1233.12
4241.28 2795.2 -1837.56
4594.34 3399.65 -1837.56
5653.49 2795.2 -1837.56
6359.59 4004.09 -1837.56
5300.44 3399.65 -1837.56
6889.08 1505.16 -267.808
6437.42 982.991 -1228.05
4947.39 3598.76 -1195.89
6472.02 4292.03 -210.101
7207.19 3761.78 -400.179
4947.39 5212.98 -1837.56
4947.39 5817.43 -1233.12
4594.34 5817.43 -1837.56
5135.5 3996.48 -563.817
6977.61 5817.43 -288.638
7058.74 4852.84 -383.139
3118.34 4220.7 -178.319
2829.08 5817.43 -1233.12
2122.97 5817.43 -1233.12
2829.08 5212.98 -1837.56
4241.28 5817.43 -1233.12
4241.28 5212.98 -1837.56
6359.59 5212.98 -1837.56
6712.65 5817.43 -1837.56
6712.65 5013.87 -1142.25
7538.07 2475.38 -465.742
8033.14 3357.93 -877.954
5585.9 1107.85 -33.6158
4999.63 1456.62 -812.026
3493.7 3392.36 30.2573
2949.11 3523.59 -555.425
7771.8 2795.2 -1837.56
7418.75 3399.65 -1837.56
2816.4 2414.24 42.6743
3783.97 2580.78 197.263
6618.19 2950.04 -250.571
4594.34 4608.54 -1837.56
5684.43 1606.56 561.466
5116.99 4310.36 -1209.99
3501.16 5817.43 290.42
6712.65 4608.54 -1837.56
4947.39 4004.09 -1837.56
7418.75 2190.75 -1837.56
4947.39 1586.31 -1837.56
2122.97 5212.98 -1837.56
3117.17 5817.43 -294.856
2798.25 5188.33 -313.382
5653.49 648.527 -1837.56
5300.44 449.411 -984.652
6359.59 1586.31 -1837.56
5653.49 4004.09 -1837.56
3535.18 2795.2 -1837.56
6006.54 5817.43 -1837.56
5300.44 5817.43 -1837.56
5653.49 5212.98 -1837.56
7829.47 2267.47 -1157.18
7065.7 5212.98 -1837.56
2476.03 4608.54 -1837.56
1769.92 5817.43 -1837.56
2476.03 5817.43 -1837.56
6753.41 1117.42 -1837.56
3182.13 5817.43 -1837.56
2829.08 4004.09 -1837.56
3182.13 3399.65 -1837.56
7352.82 755.879 -1837.56
7065.7 5817.43 -1233.12
2476.03 3804.98 -1150.26
4241.28 2389.87 -1199.06
3182.13 4608.54 -1837.56
3888.23 5817.43 -1837.56
7418.75 5817.43 -1837.56
3888.23 2190.75 -1837.56
6359.59 648.527 -1837.56</DataArray>
            </Points>
            <CellData>
                <DataArray type="UInt64" Name="partition" format="ascii">
3
3
3
3
3
3
3
3
3
3
3
3
3
3
3
3
3
3
3
3
3
3
3
3
3
3
3
3
3
3
3
3
3
3
3
3
3
3
3
3
3
3
3
3
3
3
3
3
3
3
3
3
3
3
3
3
3
3
3
3
3
3
3
3
3
3
3
3
3
3
3
3
3
3
3
3
3
3
3
3
3
3
3
3
3
3
3
3
3
3
3
3
3
3
3
3
3
3
3
3
3
3
3
3
3
3
3
3
3
3
3
3
3
3
3
3
3
3
3
3
3
3
3
3
3
3
3
3
3
3
3
3
3
3
3
3
3
3
3
3
3
3
3
3
3
3
3
3
3
3
3
3
3
3
3
3
3
3
3
3
3
3
3
3
3
3
3
3
3
3
3
3
3
3
3
3
3
3
3
3
3
3
3
3
3
3
3
3
3
3
3
3
3
3
3
3
3
3
3
3
3
3
3
3
3
3
3
3
3
3
3
3
3
3
3
3
3
3
3
3
3
3
3
3
3
3
3
3
3
3
3
3
3
3
3
3
3
3
3
3
3
3
3
3
3
3
3
3
3
3
3
3
3
3
3
3
3
3
3
3
3
3
3
3
3
3
3
3
3
3
3
3
3
3
3
3
3
3
3
3
3
3
3
3
3
3
3
3
3
3
3
3
3
3
3
3
3
3
3
3
3
3
3
3
3
3
3
3
3
3
3
3
3
3
3
3
3
3
3
3
3
3
3
3
3
3
3
3
3
3
3
3
3
3
3
3
3
3
3
3
3
3
3
3
3
3
3
3
3
3
3
3
3
3
3
3
3
3
3
3
3
3
3
3
3
3
3
3
3
3
3
3
3
3
3
3
3
3
3
3
3
3
3
3
3
3
3
3
3
3
3
3
3
3
3
3
3
3
3
3
3
3
3
3
3
3
3
3
3
3
3
3
3
3
3
3
3
3
3
3
3
3
3
3
3
3
3
3
3
3
3
3
3
3
3
3
3
3
3
3
3
3
3
3
3
3
3
3
3
3
3
3
3
3
3
3
3
3
3
3
3
3
3
3
3
3
3
3
3
3
3
3
3
3
3
3
3
3
3
3
3
3
3
3
3
3
3
3
3
3
3
3
3
3
3
3
3
3
3
3
3
3
3
3
3
3
3
3
3
3
3
3
3
3
3
3
3
3
3
3
3
3
3
3
3
3
3
3
3
3
3
3
3
3
3
3
3
3
3
3
3
3
3
3
3
3
3
3
3
3
3
3
3
3
3
3
3
3
3
3
3
3
3
3
3
3
3
3
3
3
3
3
3
3
3
3
3
3
3
3
3
3
3
3
3
3
3
3
3
3
3
3
3
3
3
3
3
3
3
3
3
3
3
3
3
3
3
3
3
3
3
3
3
3
3
3
3
3
3
3
3
3
3
3
3
3
3
3
3
3
3
3
3
3
3
3
3
3
3
3
3
3
3
3
3
3
3
3
3
3
3
3
3
3
3
3
3
3
3
3
3
3
3
3
3
3
3
3
3
3
3
3
3
3
3
3
3
3
3
3
3
3
3
3
3
3
3
3
3
3
3
3
3
3
3
3
3
3
3
3
3
3
3
3
3
3
3
3
3
3
3
3
3
3
3
3
3
3
3
3
3
3
3
3
3
3
3
3
3
3
3
3
3
3
3
3
3
3
3
3
3
3
3
3
3
3
3
3
3
3
3
3
3
3
3
3
3
3
3
3
3
3
3
3
3
3
3
3
3
3
3
3
3
3
3
3
3
3
3
3
3
3
3
3
3
3
3
3
3
3
3
3
3
3
3
3
3
3
3
3
3
3
3
3
3
3
3
3
3
3
3
3
3
3
3
3
3
3
3
3
3
3
3
3
3
3
3
3
3
3
3
3
3
3
3
3
3
3
3
3
3
3
3
3
3
3
3
3
3
3
3
3
3
3
3
3
3
3
3
3
3
3
3
3
3
3
3
3
3
3
3
3
3
3
3
3
3
3
3
3
3
3
3
3
3
3
3
3
3
3
3
3
3
3
3
3
3
3
3
3
3
3
3
3
3
3
3
3
3
3
3
3
3
3
3
3
3
3
3
3
3
3
3
3
3
3
3
3
3
3
3
3
3
3
3
3
3
3
3
3
3
3
3
3
3
3
3
3
3
3
3
3
3
3
3
3
3
3
3
3
3
3
3
3
3
3
3
3
3
3
3
3
3
3
3
3
3
3
3
3
3
3
3
3
3
3
3
3
3
3
3
3
3
3
3
3
3
3
3
3
3
3
3
3
3
3
3
3
3
3
3
3
3
3
3
3
3
3
3
3
3
3
3
3
3
3
3
3
3
3
3
3
3
3
3
3
3
3
3
3
3
3
3
3
3
3
3
3
3
3
3
3
3
3
3
3
3
3
3
3
3
3
3
3
3
3
3
3
3
3
3
3
3
3
3
3
3
3
3
3
3
3
3
3
3
3
3
3
3
3
3
3
3
3
3
3
3
3
3
3
3
3
3
3
3
3
3
3
3
3
3
3
3
3
3
3
3
3
3
3
3
3
3
3
3
3
3
3
3
3
3
3
3
3
3
3
3
3
3
3
3
3
3
3
3
3
3
3
3
3
3
3
3
3
3
3
3
3
3
3
3
3
3
3
3
3
3
3
3
3
3
3
3
3
3
3
3
3
3
3
3
3
3
3
3
3
3
3
3
3
3
3
3
3
3
3
3
3
3
3
3
3
3
3
3
3
3
3
3
3
3
3
3
3
3
3
3
3
3
3
3
3
3
3
3
3
3
3
3
3
3
3
3
3
3
3
3
3
3
3
3
3
3
3
3
3
3
3
3
3
3
3
3
3
3
3
3
3
3
3
3
3
3
3
3
3
3
3
3
3
3
3
3
3
3
3
3
3
3
3
3
3
3
3
3
3
3
3
3
3
3
3
3
3
3
3
3
3
3
3
3
3
3
3
3
3
3
3
3
3
3
3
3
3
3
3
3
3
3
3
3
3
3
3
3
3
3
3
3
3
3
3
3
3
3
3
3
3
3
3
3
3
3
3
3
3
3
3
3
3
3
3
3
3
3
3
3
3
3
3
3
3
3
3
3
3
3
3
3
3
3
3
3
3
3
3
3
3
3
3
3
3
3
3
3
3
3
3
3
3
3
3
3
3
3
3
3
3
3
3
3
3
3
3
3
3
3
3
3
3
3
3
3
3
3
3
3
3
3
3
3
3
3
3
3
3
3
3
3
3
3
3
3
3
3
3
3
3
3
3
3
3
3
3
3
3
3
3
3
3
3
3
3
3
3
3
3
3
3
3
3
3
3
3
3
3
3
3
3
3
3
3
3
3
3
3
3
3
3
3
3
3
3
3
3
3
3
3
3
3
3
3
3
3
3
3
3
3
3
3
3
3
3
3
3
3
3
3
3
3
3
3
3
3
3
3
3
3
3
3
3
3
3
3
3
3
3
3
3
3
3
3
3
3
3
3
3
3
3
3
3
3
3
3
3
3
3
3
3
3
3
3
3
3
3
3
3
3
3
3
3
3
3
3
3
3
3
3
3
3
3
3
3
3
3
3
3
3
3
3
3
3
3
3
3
3
3
3
3
3
3
3
3
3
3
3
3
3
3
3
3
3
3
3
3
3
3
3
3
3
3
3
3</DataArray>
                <DataArray type="UInt64" Name="region" format="ascii">
0
0
0
0
0
0
0
0
0
0
0
0
0
0
0
0
0
0
0
0
0
0
0
0
0
0
0
0
0
0
0
0
0
0
0
0
0
0
0
0
0
0
0
0
0
0
0
0
0
0
0
0
0
0
0
0
0
0
0
0
0
0
0
0
0
0
0
0
0
0
0
0
0
0
0
0
0
0
0
0
0
0
0
0
0
0
0
0
0
0
0
0
0
0
0
0
0
0
0
0
0
0
0
0
0
0
0
0
0
0
0
0
0
0
0
0
0
0
0
0
0
0
0
0
0
0
0
0
0
0
0
0
0
0
0
0
0
0
0
0
0
0
0
0
0
0
0
0
0
0
0
0
0
0
0
0
0
0
0
0
0
0
0
0
0
0
0
0
0
0
0
0
0
0
1
1
1
1
1
1
1
1
1
1
1
1
1
1
1
1
1
1
1
1
1
1
1
1
1
1
1
1
1
1
1
1
1
1
1
1
1
1
1
1
1
1
1
1
1
1
1
1
1
1
1
1
1
1
1
1
1
1
1
1
1
1
1
1
1
1
1
1
1
1
1
1
1
1
1
1
1
1
1
1
1
1
1
1
1
1
1
1
1
1
1
1
1
1
1
1
1
1
1
1
1
1
1
1
1
1
1
1
1
1
1
1
1
1
1
1
1
1
1
1
1
1
1
1
1
1
1
1
1
1
1
1
1
1
1
1
1
1
1
1
1
1
1
1
1
1
1
1
1
1
1
1
1
1
1
1
1
1
1
1
1
1
1
1
1
1
1
1
1
1
1
1
1
1
1
1
1
1
1
1
1
1
1
1
1
1
1
1
1
1
1
1
1
1
1
1
1
1
1
1
1
1
1
1
1
1
1
1
1
1
1
1
1
1
1
1
1
1
1
1
1
1
1
1
1
1
1
1
1
1
1
1
1
1
1
1
1
1
1
1
1
1
1
1
1
1
1
1
1
1
1
1
1
1
1
1
1
1
1
1
1
1
1
1
1
1
1
1
1
1
1
1
1
1
1
1
1
1
1
1
1
1
1
1
1
1
1
1
1
1
1
1
1
1
1
1
1
1
1
1
1
1
1
1
1
1
1
1
1
1
1
1
1
1
1
1
1
1
1
1
1
1
1
1
1
1
1
1
1
1
1
1
1
1
1
1
1
1
1
1
1
1
1
1
1
1
1
1
1
1
1
1
1
1
1
1
1
1
1
1
1
1
1
1
1
1
1
1
1
1
1
1
1
1
1
1
2
2
2
2
2
2
2
2
2
2
2
2
2
2
2
2
2
2
2
2
2
2
2
2
2
2
2
2
2
2
2
2
2
2
2
2
2
2
2
2
2
2
2
2
2
2
2
2
2
2
2
2
2
2
2
2
2
2
2
2
2
2
2
2
2
2
2
2
2
2
2
2
2
2
2
2
2
2
2
2
2
2
2
2
2
2
2
2
2
2
2
2
2
2
2
2
2
2
2
2
2
2
2
2
2
2
2
2
2
2
2
2
2
2
2
2
2
2
2
2
2
2
2
2
2
2
2
2
2
2
2
2
2
2
2
2
2
2
2
2
2
2
2
2
2
2
2
2
2
2
2
2
2
2
2
2
2
2
2
2
2
2
2
2
2
2
2
2
2
2
2
2
3
3
3
3
3
3
3
3
3
3
3
3
3
3
3
3
3
3
3
3
3
3
3
3
3
3
3
3
3
3
3
3
3
3
3
3
3
3
3
3
3
3
3
3
3
3
3
3
3
3
3
3
3
3
3
3
3
3
3
3
3
3
3
3
3
3
3
3
3
3
3
3
3
3
3
3
3
3
3
3
3
3
3
3
3
3
3
3
3
3
3
3
3
3
3
3
3
3
3
3
3
3
3
3
3
3
3
3
3
3
3
3
3
3
3
3
3
3
3
3
3
3
3
3
3
3
3
3
3
3
3
3
3
3
3
3
3
3
3
3
3
3
3
3
3
3
3
3
3
3
3
3
3
3
3
3
3
3
3
3
3
3
3
3
3
3
3
3
3
3
3
3
3
3
3
3
3
3
3
3
3
3
3
3
3
3
3
3
3
3
3
3
3
3
3
3
3
3
3
3
3
3
3
3
3
3
3
3
3
3
3
3
3
3
3
3
3
3
3
3
3
3
3
3
3
3
3
3
3
3
3
3
3
3
3
3
3
3
3
3
3
3
3
3
3
3
3
3
3
3
3
3
3
3
3
3
3
3
3
3
3
3
3
3
3
3
3
3
3
3
3
3
3
3
3
3
3
3
3
3
3
3
3
3
3
3
3
3
3
3
3
3
3
3
3
3
3
3
3
3
3
3
3
3
3
3
3
3
3
3
3
3
3
3
3
3
3
3
3
3
3
3
3
3
3
3
3
3
3
3
3
3
3
3
3
3
3
3
3
3
3
3
3
3
3
3
3
3
3
3
3
3
3
3
3
3
3
3
3
3
3
3
3
3
3
3
3
3
3
3
3
3
3
3
3
3
3
3
3
3
3
3
3
3
3
3
3
3
3
3
3
3
3
3
3
3
3
3
3
3
3
3
3
3
3
3
3
3
3
3
3
3
3
3
3
3
3
3
3
3
3
3
3
3
3
3
3
3
3
3
3
3
3
3
3
3
3
3
3
3
3
3
3
3
3
3
3
3
3
3
3
3
3
3
3
3
3
3
3
3
3
3
3
3
3
3
3
3
3
3
3
3
3
3
3
3
3
3
3
3
3
3
3
3
3
3
3
3
3
3
3
3
3
3
3
3
3
3
3
3
3
3
3
3
3
3
3
3
3
3
3
3
3
3
3
3
3
3
3
3
3
3
3
3
3
3
3
3
3
3
3
3
3
3
3
3
3
3
3
3
3
3
3
3
3
3
3
3
3
3
3
3
3
3
3
3
3
3
3
3
3
3
3
3
3
3
3
3
3
3
3
3
3
3
3
3
3
3
3
3
3
3
3
3
3
3
3
3
3
3
3
3
3
3
3
3
3
3
3
3
3
3
3
3
3
3
3
3
3
3
3
3
3
3
3
3
3
3
3
3
3
3
3
3
3
3
3
3
3
3
3
3
3
3
3
3
3
3
3
3
3
3
3
3
3
3
3
3
3
3
3
3
3
3
3
3
3
3
3
3
3
3
3
3
3
3
4
4
4
4
4
4
4
4
4
4
5
5
5
5
5
5
5
5
5
5
6
6
6
6
6
6
6
6
6
6
6
6
6
6
6
6
6
6
6
6
6
6
6
6
6
6
6
6
6
6
6
6
6
6
6
6
6
6
6
6
6
6
6
6
6
7
7
7
7
7
7
7
7
7
7
7
7
7
7
7
7
7
7
7
7
7
7
7
7
7
7
7
7
7
7
7
7
7
7
7
7
7
7
7
7
7
7
7
7
7
7
7
7
7
7
7
7
7
7
7
7
7
7
7
7
7
7
7
7
7
7
7
7
7
7
7
7
7
7
7
7
7
7
7
7
7
7
7
7
7
7
7
7
7
7
7
7
7
20
20
20
20
20
20
20
20
20
20
20
20
20
20
20
20
20
20
20
20
20
20
20
20
20
20
20
20
20
20
20
20
20
20
20
20
20
20
20
20
20
20
20
20
20
20
20
20
20
20
20
20
20
20
20
20
20
20
20
20
20
20
20
20
20
20
20</DataArray>
                <DataArray type="UInt64" Name="original_index" format="ascii">
33
34
116
128
182
188
189
194
198
203
206
209
215
220
221
396
400
401
402
428
436
478
553
554
559
572
592
604
627
632
643
650
653
670
700
701
719
756
780
821
880
887
1008
1129
1190
1277
1280
1282
1283
1342
1438
1458
1464
1471
1494
1508
1509
1518
1519
1538
1539
1543
1545
1546
1547
1548
1556
1557
1558
1559
1562
1567
1568
1569
1570
1571
1576
1577
1583
1584
1587
1588
1589
1592
1594
1596
1597
1598
1599
1600
1601
1602
1603
1604
1606
1607
1608
1610
1613
1614
1617
1618
1619
1633
1634
1635
1636
1638
1640
1641
1642
1644
1646
1647
1650
1651
1652
1653
1654
1660
1661
1662
1663
1664
1666
1667
1671
1672
1673
1674
1675
1676
1677
1678
1679
1680
1681
1688
1689
1693
1694
1695
1696
1697
1699
1700
1703
1704
1705
1706
1707
1708
1709
1711
1714
1715
1717
1718
1719
1721
1724
1725
1726
1727
1729
1730
1739
1744
1752
1766
1772
1778
1789
1796
2075
2085
2089
2094
2095
2099
2111
2112
2113
2118
2136
2145
2159
2189
2193
2210
2234
2236
2245
2254
2258
2259
2263
2270
2276
2278
2279
2283
2287
2322
2324
2331
2337
2340
2349
2375
2389
2402
2441
2462
2474
2475
2503
2510
2529
2530
2545
2572
2598
2602
2606
2627
2629
2646
2661
2671
2677
2678
2699
2702
2707
2711
2719
2755
2756
2776
2778
2798
2801
2812
2820
2849
2858
2859
2860
2862
2864
2865
2889
2899
2902
2935
2962
2963
2966
2970
2980
2984
2986
2989
2991
3009
3017
3020
3031
3037
3039
3048
3062
3068
3077
3079
3082
3086
3090
3096
3098
3131
3143
3147
3156
3169
3184
3194
3206
3211
3217
3226
3231
3267
3279
3281
3284
3298
3319
3322
3347
3362
3376
3393
3397
3400
3415
3417
3420
3431
3441
3470
3518
3524
3529
3530
3531
3539
3566
3572
3575
3579
3581
3592
3600
3602
3611
3623
3660
3667
3669
3684
3686
3722
3723
3730
3739
3745
3751
3803
3837
3847
3848
3853
3862
3879
3911
3932
3946
3956
3960
3966
3971
3976
3982
3984
3989
4026
4042
4049
4055
4057
4076
4080
4087
4106
4156
4170
4183
4189
4194
4199
4200
4224
4227
4234
4238
4266
4267
4298
4302
4304
4306
4332
4333
4337
4342
4346
4350
4363
4364
4373
4374
4382
4399
4423
4426
4449
4462
4518
4525
4534
4552
4554
4556
4570
4599
4604
4608
4628
4630
4640
4650
4732
4755
4786
4787
4794
4798
4816
4823
4840
4872
4882
4885
4888
4891
4895
4899
4920
4931
4948
4950
4953
4956
4969
4979
4982
4990
4995
5045
5046
5058
5059
5072
5074
5086
5095
5098
5101
5110
5120
5134
5142
5146
5152
5171
5179
5185
5186
5208
5216
5225
5227
5230
5233
5251
5259
5265
5273
5283
5293
5297
5301
5312
5328
5339
5353
5369
5382
5426
5443
5471
5498
5505
5523
5528
5539
5540
5551
5558
5559
5566
5570
5593
5595
5598
5632
5659
5669
5692
5695
5725
5745
5772
5794
5798
5803
5834
5847
5849
5861
5862
5909
5925
5934
5947
5956
5961
5970
5986
6007
6013
6023
6030
6046
6050
6055
6062
6072
6074
6079
6118
6119
6179
6197
6201
6205
6231
6240
6246
6255
6258
6324
6325
6326
6327
6328
6329
6330
6452
6480
6537
6548
6569
6577
6592
6620
6626
6755
6763
6767
6778
6780
6808
6815
6848
6874
6875
6880
6886
6888
6899
6903
6912
6914
6997
7026
7030
7034
7038
7039
7043
7044
7045
7049
7052
7055
7057
7058
7059
7067
7075
7077
7080
7083
7084
7086
7087
7091
7123
7131
7198
7212
7461
7465
7493
7562
7695
7697
7705
7710
7754
7780
7831
7847
7850
7852
7854
7911
7912
7913
7915
7924
7925
7929
7931
7944
7946
7948
7950
7952
7956
7960
7965
7968
7969
7970
7971
7976
7977
7979
7980
7981
7986
7987
7990
7992
7998
8000
8001
8002
8003
8004
8005
8006
8007
8009
8011
8014
8015
8016
8018
8019
8022
8023
8024
8026
8028
8029
8030
8031
8032
8033
8034
8036
8037
8039
8041
8046
8048
8049
8050
8051
8052
8055
8058
8062
8066
8073
8076
8083
8084
8087
8088
8089
8098
8100
8135
8144
8145
8150
8151
8155
8157
8158
8162
8169
8172
8173
8174
8177
8178
8179
8181
8187
8188
8191
8194
8199
8200
8202
8477
8494
8505
8512
8530
8536
8537
8554
8555
8561
8566
8572
8575
8582
8590
8601
8603
8612
8614
8615
8634
8658
8669
8682
8687
8689
8698
8716
8722
8727
8732
8744
8747
8750
8756
8758
8762
8769
8786
8789
8795
8799
8800
8804
8805
8808
8814
8821
8822
8828
8830
8852
8859
8863
8873
8877
8882
8897
8900
8927
8931
8933
8940
8944
8952
8953
8957
8967
8969
8987
8988
8993
8994
9001
9007
9016
9017
9023
9024
9027
9030
9045
9046
9050
9062
9065
9078
9083
9086
9103
9105
9108
9112
9120
9124
9126
9128
9137
9142
9151
9166
9174
9202
9206
9211
9215
9216
9231
9244
9262
9264
9270
9274
9275
9277
9290
9296
9304
9305
9309
9315
9328
9334
9352
9370
9375
9376
9382
9383
9407
9412
9415
9416
9428
9433
9440
9452
9454
9458
9467
9480
9495
9501
9502
9507
9515
9527
9535
9572
9586
9588
9598
9603
9608
9612
9624
9628
9629
9640
9647
9649
9651
9682
9685
9689
9693
9710
9714
9724
9730
9739
9753
9758
9774
9785
9812
9821
9825
9827
9829
9833
9853
9854
9857
9861
9871
9873
9875
9878
9884
9918
9928
9936
9937
9940
9949
9961
9963
9970
9976
9986
9988
9995
9997
10000
10005
10007
10009
10021
10022
10027
10029
10054
10056
10068
10073
10082
10106
10108
10109
10110
10114
10123
10126
10134
10141
10143
10146
10147
10149
10151
10157
10164
10172
10181
10189
10191
10195
10197
10208
10215
10245
10255
10258
10269
10270
10273
10274
10284
10291
10302
10303
10305
10311
10317
10332
10335
10341
10342
10350
10375
10388
10401
10402
10413
10422
10436
10446
10450
10468
10475
10491
10505
10515
10524
10525
10529
10532
10543
10546
10548
10572
10575
10590
10598
10601
10617
10625
10626
10629
10644
10669
10677
10685
10729
10734
10740
10741
10755
10759
10774
10776
10777
10798
10801
10805
10818
10829
10837
10846
10863
10864
10875
10877
10880
10895
10910
10934
10936
10939
10956
10964
10966
10981
10984
10992
11008
11013
11035
11037
11039
11042
11043
11049
11054
11056
11059
11060
11078
11085
11099
11107
11118
11128
11139
11141
11145
11153
11158
11167
11175
11178
11182
11192
11194
11212
11224
11234
11235
11243
11254
11255
11263
11267
11271
11283
11306
11324
11347
11357
11364
11365
11368
11380
11390
11415
11422
11426
11430
11435
11437
11461
11479
11499
11504
11509
11524
11528
11530
11534
11537
11543
11544
11545
11546
11556
11561
11562
11564
11573
11576
11578
11585
11589
11609
11621
11628
11640
11652
11656
11666
11670
11673
11679
11682
11693
11694
11696
11704
11709
11718
11726
11731
11733
11739
11742
11755
11764
11765
11771
11774
11783
11789
11796
11798
11799
11806
11807
11811
11830
11831
11833
11845
11856
11860
11870
11873
11884
11893
11901
11906
11913
11915
11927
11938
11968
11969
11971
11974
11980
11982
11997
12005
12017
12026
12044
12084
12097
12102
12110
12116
12121
12140
12153
12158
12170
12176
12180
12187
12202
12212
12215
12217
12229
12235
12238
12248
12267
12268
12274
12277
12284
12287
12288
12290
12316
12328
12347
12353
12358
12364
12381
12386
12412
12422
12428
12432
12436
12440
12442
12446
12448
12472
12476
12490
12496
12509
12510
12519
12540
12542
12568
12578
12580
12582
12602
12626
12630
12635
12652
12663
12684
12688
12708
12716
12727
12732
12739
12740
12749
12765
12766
12802
12812
12814
12816
12821
12851
12866
12873
12874
12880
12896
12900
12903
12917
12928
12940
12945
12953
12954
12957
12971
12975
12976
12981
12990
12991
13010
13015
13027
13031
13042
13047
13051
13057
13058
13065
13093
13097
13103
13114
13119
13127
13141
13154
13159
13164
13169
13170
13176
13180
13182
13188
13192
13200
13203
13207
13213
13214
13218
13219
13223
13229
13234
13295
13296
13297
13301
13302
13303
13304
13404
13407
13408
13409
13410
13411
13412
13413
13430
13431
13432
13433
13434
13435
13436
13437
13438
13439
13440
13441
13453
13454
13455
13456
13457
13458
2062
2063
2064
2065
2066
2067
2068
2069
2070
2071
2072
2073
2074
2133
2136
2137
2138
2139
2140
2141
2142
2143
2144
2146
2148
2149
2151
2153
2200
2201
2202
2203
2204
2205
2206
2207
2208
2209
2233
2234
2235
2236
2237
2238
2239
2240
2241
2242
2279
2280
2281
2282
2283
2284
2285
2286
2287
2288
2289
2290
2291
2292
2293
2294
2295
2302
2315
2316
2318
2319
2321
2323
2325
2329
2330
2333
2335
2340
2343
2344
2347
2348
2350
2351
2353
2357
2358
2359
2362
2363
2369
2371
2375
2485
2487
2488
2489
2490
2491
2493
2494
2498
2499
2500
2501
2502
2641
2642
2653
2654
2655
2656
2657
2658
2659
2661
2765
2766
2767
2768
2769
2770
2771
2772
2773
2774
2776
2778
2946
2947
2948
2949
2950
2951
2952
2953
2954
2955
2956
2957
2958
2959
2960
2962
2963
2964
2967
2968
2969
2970
2971
2972
2973
2974
2975
2976
2977
2993
2996
2997
2998
2999
3000
3001
3002
3003
3004
3005
3006
3007
3008
3009
3010
3011
3012
3013
3014
3015
3016
3017
3018
3019
3020
3022
3023
3024
3893
3894
3895
3896
3897
3898
3899
3900
3901
3902
3903
3904
3905
3906
3907
3908
3909
3910
3911
3912
3943
3944
3945
3946
3947
3948
3949
3950
3951
3952
3981
3983
4012
4013
4014
4015
4016
4017
4019
4020
4021
4022
4102
4103
4104
4105
4106
4107
4108
4109
4110
4111
4160
4163
4164
4165
4166
4167
4168
4169
4170
4171
4172
4173
4174
4176
4177</DataArray>
            </CellData>
            <Cells>
                <DataArray type="UInt64" Name="connectivity" format="ascii">
0 1 2 3 
1 2 3 4 
5 6 7 8 
9 10 11 12 
13 14 15 16 
17 18 19 20 
1 21 22 23 
24 25 26 4 
14 13 27 16 
10 28 9 11 
0 2 29 3 
30 31 32 28 
27 33 34 35 
22 0 29 3 
1 0 22 3 
24 1 3 4 
36 37 38 20 
6 33 39 35 
40 37 38 11 
24 41 42 4 
9 28 40 11 
43 44 45 7 
1 24 26 4 
46 25 47 48 
36 49 31 28 
34 35 25 48 
50 51 52 15 
44 53 54 5 
33 13 39 35 
33 55 34 35 
25 42 56 4 
57 58 23 59 
28 37 40 11 
60 58 7 61 
1 21 23 59 
55 6 8 59 
44 53 5 43 
14 50 62 15 
39 44 54 5 
63 64 52 65 
37 17 38 20 
34 27 35 48 
55 6 5 8 
6 44 39 5 
64 62 65 66 
50 52 62 15 
66 62 39 54 
14 33 39 54 
50 63 64 52 
14 50 64 62 
18 17 37 20 
67 15 16 68 
13 27 16 68 
27 13 35 48 
64 50 52 62 
24 55 21 26 
13 27 68 48 
69 46 70 48 
68 69 70 48 
31 30 32 71 
47 31 32 70 
13 14 27 33 
46 47 32 70 
33 55 6 5 
36 37 28 11 
64 62 66 54 
1 21 59 26 
1 24 21 26 
14 62 13 15 
52 64 62 65 
55 24 34 26 
72 51 50 15 
41 73 2 3 
67 51 72 15 
74 75 45 61 
13 14 33 39 
64 66 76 54 
63 77 64 65 
21 57 22 23 
41 24 3 4 
65 64 66 76 
55 34 35 26 
35 34 25 26 
62 14 13 39 
41 2 78 4 
69 46 32 70 
72 67 15 16 
50 72 15 16 
14 50 15 16 
15 13 16 68 
43 5 7 8 
16 27 69 68 
66 53 76 54 
33 6 39 5 
64 14 62 54 
77 64 65 76 
5 44 43 7 
62 14 39 54 
33 39 54 5 
58 60 7 8 
42 41 56 4 
53 66 44 54 
44 66 39 54 
18 49 42 56 
6 7 8 59 
58 57 8 59 
0 1 22 23 
75 43 45 61 
6 44 5 7 
44 53 43 45 
43 53 79 45 
75 43 79 45 
45 43 7 61 
60 43 7 8 
43 60 7 61 
60 43 75 61 
34 24 42 25 
60 58 57 8 
46 34 42 25 
7 58 8 59 
31 49 32 28 
2 73 29 3 
21 1 22 3 
21 55 8 59 
55 33 6 35 
73 80 2 29 
36 18 37 20 
19 18 78 20 
42 46 25 47 
73 81 80 29 
31 49 47 32 
41 18 42 56 
80 0 2 29 
21 57 23 59 
24 1 21 3 
57 21 8 59 
27 13 33 35 
2 41 3 4 
24 42 25 4 
31 30 10 28 
10 31 28 11 
56 41 78 4 
55 6 59 26 
34 24 25 26 
6 55 35 26 
49 36 31 47 
21 55 59 26 
49 56 36 47 
18 49 56 36 
49 36 37 28 
41 73 19 78 
18 41 19 78 
73 41 2 78 
41 18 56 78 
42 25 56 47 
46 34 25 48 
27 69 68 48 
27 46 69 48 
46 27 34 48 
49 42 56 47 
46 47 70 48 
30 10 28 9 
49 46 42 47 
37 36 38 11 
49 46 47 32 
18 49 36 37 
31 32 70 71 
31 30 71 10 
82 40 38 11 
82 40 11 12 
18 56 78 20 
56 18 36 20 
31 36 28 11 
40 9 11 12 
83 84 85 86 
87 88 89 90 
91 92 93 94 
95 96 97 98 
99 100 101 102 
34 33 27 86 
103 104 105 89 
106 84 107 85 
16 27 14 102 
108 109 110 111 
112 113 114 115 
116 117 100 102 
118 106 119 85 
34 27 120 86 
24 21 55 121 
122 121 123 111 
124 125 126 122 
3 41 122 123 
127 128 22 3 
91 93 129 94 
130 131 132 133 
131 134 135 133 
93 77 129 94 
84 136 83 85 
41 73 3 137 
92 138 91 93 
114 112 139 140 
50 64 93 141 
84 99 106 107 
142 135 73 137 
30 28 89 143 
17 37 139 140 
135 132 133 137 
14 16 102 141 
41 18 137 123 
43 144 98 83 
125 109 145 121 
93 64 94 107 
102 69 120 146 
102 116 147 120 
135 134 122 133 
148 149 118 119 
104 105 89 147 
34 42 24 123 
108 100 84 86 
37 18 49 140 
150 110 151 152 
153 125 124 122 
113 154 155 114 
156 127 122 121 
83 157 86 111 
3 21 24 121 
77 63 64 93 
54 5 53 85 
69 27 16 102 
69 102 147 146 
46 34 27 120 
158 138 92 93 
126 134 124 122 
88 159 87 89 
131 135 142 133 
121 157 83 111 
126 125 156 122 
131 142 132 133 
96 97 98 160 
158 99 101 141 
154 152 114 161 
152 162 114 140 
156 125 145 121 
43 144 60 75 
96 95 163 98 
98 43 83 85 
132 164 139 140 
116 117 102 147 
151 165 155 162 
108 110 120 111 
19 164 132 140 
17 164 19 140 
110 153 123 111 
43 5 83 85 
46 42 120 146 