<?xml version="1.0" encoding="UTF-8"?>
<VTKFile type="UnstructuredGrid" version="0.1" byte_order="LittleEndian">
    <UnstructuredGrid>
        <Piece NumberOfPoints="361" NumberOfCells="1664">
            <PointData>
                <DataArray type="UInt64" Name="original_index" format="ascii" NumberOfComponents="1">
24
706
377
23
413
414
731
62
770
378
379
708
704
122
22
705
546
495
496
870
872
497
547
548
150
442
825
771
891
21
121
703
120
734
20
153
527
845
474
528
475
846
494
440
439
822
376
821
125
25
126
767
61
149
374
375
766
443
441
824
572
573
890
63
415
732
123
871
152
65
792
769
793
913
473
730
791
914
915
498
844
707
151
438
148
64
733
412
729
790
416
590
591
948
768
823
626
0
6
709
124
26
2289
2387
2409
2415
2372
2378
1935
2422
2428
1318
2201
2397
2311
1843
266
1844
2438
1960
1959
2014
2344
1851
2245
2269
2276
2365
1934
1901
1900
2278
2016
2063
2250
2282
2062
2339
2441
2086
2042
2427
1826
2244
1846
269
1847
2416
2194
2268
1962
2338
2179
1320
239
1321
1825
238
1870
2267
1317
1824
1823
1850
1849
1316
1873
242
241
1323
2015
267
1898
1845
2264
1897
2304
1991
2259
2435
2323
2348
2286
2312
2386
2402
1990
2195
1936
1315
1872
1871
240
1834
1961
1322
1848
2358
1958
2360
2373
1852
2369
1330
2104
2405
1899
2255
1827
1853
271
1835
1854
1828
2013
1842
1319
268
612
2012
1992
69
1896
2061
265
270
7
70
68
991
1055
992
1054
1053
167
990
1106
1048
1207
1208
1164
1051
1050
231
1107
1160
1108
232
1052
1059
995
996
229
1049
1159
1114
1058
1056
1110
1057
1113
234
166
994
993
170
1204
169
1205
1161
1111
1206
1242
1162
1163
168
233
1241
1109
230
1112
171
172
13
1577
1576
2575
2684
2618
2690
2831
2593
2685
2737
1474
1529
2598
1861
1414
1413
2827
2477
1404
1415
317
2833
1402
2493
1370
1401
2541
1467
2688
1349
1411
1863
2616
2707
1348
2667
1520
1571
2627
1859
2589
2624
1521
1352
236
1862
1522
1860
1466
1350
1351
1570
1403
1475
1614
1369
1530
2742
1371
305
2786
1412
1465
1400
1464
312
1864
1476
314
316
313
315
301
303
302
304
18</DataArray>
            </PointData>
            <Points>
                <DataArray type="Float64" Name="Points" format="ascii" NumberOfComponents="3">
10949.3 2202.04 521.803
10361.9 2563.47 441.894
10361.9 2563.47 641.876
10949.3 2925.12 522.462
7796.88 5215.87 1176.98
8498.34 5215.86 1036.21
7796.46 5215.9 977.268
8145.18 5817.43 1094.38
9774.45 1479.54 562.242
10361.8 1840.7 641.3
10362.2 1117.81 645.089
10362.2 1117.81 445.077
10363 4009.47 449.747
10949.3 3648.2 324.075
10949.3 3648.2 524.328
10362.5 3286.38 445.511
8601.26 2924.66 1009.5
9189.2 3285.99 892.119
9187.35 2563.36 883.168
8601.27 2924.68 809.508
8599.3 1479.58 800.027
9186.54 1840.96 879.411
8599.16 2202.2 999.804
8599.17 1479.58 999.368
8144.87 5817.43 894.96
9774.44 1479.54 762.163
9187.7 1118.17 685.265
9775.69 756.451 569.382
8148.17 3411.07 912.438
10949.3 4371.27 525.654
10949.3 4371.28 325.601
10363.2 4732.81 451.562
10949.3 5094.36 325.633
9899.7 5215.81 547.688
10949.3 5094.35 525.634
10248.6 5817.43 468.154
7799.63 4012.65 1191.22
7799.17 4012.72 991.244
8149.71 4614.27 1117.13
8500.14 4012.55 1045.46
8850.36 4614.2 972.184
8499.77 4012.64 845.446
9190.71 4009.18 899.613
9775.16 2924.69 765.199
9776.4 3647.65 772.126
9189.2 3286 692.102
10362.5 3286.34 645.683
9190.7 4009.18 699.597
10949.3 1478.96 323.035
10949.3 1478.96 523.005
10949.3 755.885 325.327
9776.39 3647.66 572.042
7443.48 5817.43 1233.86
7443.02 5817.43 1034.22
10363.2 4732.82 651.547
10363 4009.51 649.761
9777.14 4371 576.418
9775.71 756.458 769.467
9774.27 2202.13 760.541
9186.56 1840.97 679.521
7447.83 3411.06 1257.03
8148.56 3410.96 1112.34
7447.35 3411.16 1057.12
8846.68 5817.43 953.91
9199.25 5215.82 892.629
8498 5215.88 836.31
10949.3 2925.12 322.461
8599.19 2202.25 799.814
9547.64 5817.43 611.778
10248.7 5817.43 668.079
8149.29 4614.32 917.114
9774.27 2202.13 560.551
8850.03 4614.25 772.123
8012.76 2563.55 924.575
7448.28 4614.34 1258.44
7094.19 5215.9 1114.71
7447.8 4614.39 1058.59
8011.12 1840.86 916.299
8012.58 1117.95 922.452
9187.67 1118.17 885.116
7097.72 4012.81 1133.09
10361.8 1840.7 441.467
8846.4 5817.43 754.075
9777.13 4371.05 776.472
6740.49 5817.43 1169.99
9547.76 5817.43 811.359
9199.02 5215.85 692.817
7094.66 5215.87 1314.21
6391.09 5215.89 1247.84
6745.39 4614.43 1195.77
9899.83 5215.78 747.536
8012.76 2563.53 1124.58
8011.07 1840.82 1116.16
7423.88 2202.2 1037.05
9775.19 2924.74 565.203
9187.37 2563.4 683.159
7423.88 2202.19 1237.06
10949.3 5817.43 523.006
10949.3 5817.43 323.029
10362.8 394.531 449.671
10949.3 2202.04 321.808
10949.3 755.885 525.304
9084.57 2094.11 1657.34
8912.92 1443.84 2579.74
8320.07 2195.03 1672.48
8139.72 1491.47 1743.87
9078.56 3640.66 1878.01
9586.36 4985.07 2524.39
8830.95 4608.54 3247.13
8756.71 4970.5 2503.87
8925.98 4174.66 2371.97
10018.7 5817.43 1329.23
10115.4 4771.62 1557.73
9699.82 5285.44 1557.18
9516.03 4351.74 1465.94
10949.3 1117.42 2647.72
10949.3 1478.96 3247.13
10949.3 1840.5 2647.72
10134.4 1437.9 2661.64
9750.45 2202.04 3247.13
9750.45 1478.96 3247.13
9151.04 1840.5 3247.13
9557.12 1836.1 2670.93
10949.3 2923.02 1721.88
10302.7 2202.19 1313.22
9779 2443.45 1931.92
10231.6 3488.34 1409.02
9686.87 1867.64 1373.15
9537.06 4608.54 3247.13
10349.9 4732.81 3247.13
10349.9 4009.73 3247.13
10112.5 4371.27 2410.35
9151.04 3286.65 3247.13
8551.63 2925.11 3247.13
8654.72 3495.48 2504.51
9233.72 2925.11 2523.67
8551.63 2202.04 3247.13
8960.37 2202.04 2587.87
8187.29 3026.62 2677.01
7771.8 2795.2 3247.13
8124.85 3399.65 3247.13
9445.65 1556.06 1980.8
10949.3 2563.03 1121.54
8326.24 2958.28 1837.47
10949.3 3286.65 2647.72
10949.3 3648.19 3247.13
10949.3 4009.73 2647.72
10307.1 3648.19 2604.94
9767.22 3283.87 2026.07
9146.88 2915.62 1627.3
9750.45 3648.19 3247.13
9352.97 3629.53 2642.07
7887.02 2322.57 2244
9890.11 5817.43 2642.68
9537.06 5817.43 3247.13
9184.01 5817.43 2642.68
10949.3 3285.11 1122.8
10243.2 5817.43 3247.13
9890.11 5212.98 3247.13
9203.45 4926.88 1805.67
9317.11 5817.43 1472.27
10949.3 4008.64 1124.4
10949.3 4732.83 1125.05
10949.3 3645.55 1722.87
10949.3 4370.19 1723.79
8614.07 5817.43 1614.13
7771.8 5212.98 3247.13
7418.75 5817.43 3247.13
8124.85 5817.43 3247.13
7771.8 5817.43 2642.68
9151.04 2563.58 3247.13
10949.3 2202.04 3247.13
10349.9 2563.58 3247.13
10949.3 2563.58 2647.72
10159.2 2202.04 2647.81
10349.9 1840.5 3247.13
10158.9 1681.2 1972.7
8477.9 4004.09 3247.13
10159.2 2925.11 2589.4
10097.9 5183.07 2108.99
7602.87 3195.02 2363.7
8321.28 3767.98 1818.53
8124.85 4100.76 2530.34
10131.9 397.248 1533.58
9702.08 1123.92 1364.31
10339.9 1480.77 1270.7
9184.01 4004.09 3247.13
7999.12 4814.89 2181.07
8124.85 4608.54 3247.13
7911.63 5817.43 1754.27
8477.9 5212.98 3247.13
9184.01 5212.98 3247.13
8830.95 5817.43 3247.13
10949.3 5205.83 1544.55
9750.45 2925.11 3247.13
8477.9 5817.43 2642.68
10949.3 4732.81 2647.72
9462.64 956.37 2386.47
9750.45 755.879 3247.13
10233.8 755.879 2531.7
9124.42 780.742 1571.23
10949.3 2202.49 1721.55
8796.21 4321.68 1655.05
9788.08 5817.43 1990.13
7952.23 1840.5 3247.13
8233.67 1629.45 2634.67
10349.9 3286.65 3247.13
7215.17 4822.16 1931.91
10949.3 1841.5 1121.81
10949.3 1481.86 1722.36
10949.3 5094.35 3247.13
10949.3 5205.83 2225.58
10949.3 758.707 1723.52
10949.3 1119.33 1123.56
9151.04 1117.42 3247.13
10949.3 394.339 2647.72
10337.7 5817.43 2225.58
10949.3 2925.11 3247.13
7094.62 2809.58 1315.89
9151.04 394.339 3247.13
7771.8 4004.09 3247.13
10949.3 5817.43 1885.07
10349.9 1117.42 3247.13
8551.63 1478.96 3247.13
10949.3 755.879 3247.13
10949.3 4371.27 3247.13
10949.3 5817.43 3247.13
10949.3 5817.43 2566.1
10949.3 5817.43 1204.04
10363 4009.47 -350.253
9776.39 3647.66 -227.958
10362.5 3286.38 -354.489
9777.14 4371 -223.582
9899.71 5215.81 -252.314
10949.3 4371.28 -474.399
10363.2 4732.81 -348.438
6745.42 4614.42 395.762
6391.11 5215.88 447.832
8011.12 1840.86 116.299
8012.58 1117.95 122.452
8599.3 1479.58 0.026748
8498.02 5215.88 36.3074
7796.48 5215.9 177.264
8144.89 5817.43 94.9569
7447.82 4614.38 258.588
7799.19 4012.72 191.24
8149.31 4614.32 117.111
8846.41 5817.43 -45.9276
9199.03 5215.84 -107.186
9775.69 756.451 -230.618
10362.2 1117.81 -354.923
10362.8 394.531 -350.329
6740.52 5817.43 369.986
7094.22 5215.9 314.707
7097.74 4012.81 333.087
9187.7 1118.17 -114.735
9774.45 1479.54 -237.758
9775.19 2924.74 -234.797
9190.7 4009.18 -100.403
9774.27 2202.13 -239.449
9186.56 1840.97 -120.479
10248.6 5817.43 -331.847
10949.3 5094.36 -474.367
10361.8 1840.7 -358.533
10361.9 2563.47 -358.106
10949.3 2202.04 -478.192
7447.37 3411.15 257.119
10949.3 2925.12 -477.539
8148.19 3411.06 112.435
8499.79 4012.63 45.4431
9189.2 3286 -107.898
8012.76 2563.55 124.575
7423.88 2202.2 237.049
8601.27 2924.68 9.50838
8599.19 2202.25 -0.185672
10949.3 3648.2 -475.925
9547.65 5817.43 -188.224
7094.16 2809.67 315.972
8850.04 4614.25 -27.8799
7443.04 5817.43 234.214
9187.37 2563.4 -116.841
10949.3 1478.96 -476.966
10949.3 755.885 -474.674
10949.3 5817.43 -476.971
8551.63 2925.11 -1837.56
8551.63 2202.04 -1837.56
8841.7 2206.33 -865.016
7829.47 2267.47 -1157.18
8259.54 2522.5 -560.339
8033.14 3357.93 -877.954
8863.5 2907.92 -665.223
8830.95 4066.89 -967.786
8626.55 4971.58 -869.228
9419.09 4906.86 -808.667
9750.45 2202.04 -1837.56
9151.04 2563.58 -1837.56
9941.12 2563.58 -1094.45
10949.3 3288 -1076.14
10349.9 4009.73 -1837.56
10349.9 3286.65 -1837.56
10009.6 3716.2 -909.983
9341.71 1478.96 -1031.35
9890.11 5212.98 -1837.56
10349.9 4732.81 -1837.56
10949.3 5094.35 -1837.56
10188.5 5163.85 -977.992
8477.9 5212.98 -1837.56
7705.59 4828.87 -831.552
7771.8 5817.43 -1233.12
7771.8 5212.98 -1837.56
8017.5 4205.77 -516.003
9537.06 4608.54 -1837.56
9982.23 4417.07 -1089.64
7676.87 5817.43 -425.578
10349.9 1840.5 -1837.56
10949.3 1839.48 -1076.99
10191.4 1478.96 -1096.67
9425.55 3293.85 -979.065
6977.61 5817.43 -288.638
7058.74 4852.84 -383.139
7771.8 4004.09 -1837.56
8124.85 3399.65 -1837.56
8124.85 4203.21 -1234.58
10949.3 4732.84 -1073.79
7538.07 2475.38 -465.742
8117.24 1682.36 -731.681
8477.9 4004.09 -1837.56
9777.36 5817.43 -849.459
10949.3 5817.43 -1157.27
10949.3 2564.12 -1077.27
9184.01 4004.09 -1837.56
10949.3 4011 -1074.57
8830.95 4608.54 -1837.56
8377.18 5817.43 -565.376
9077.37 5817.43 -706.727
7418.75 3399.65 -1837.56
9184.01 5212.98 -1837.56
9750.45 2925.11 -1837.56
7771.8 2795.2 -1837.56
7065.7 5817.43 -1233.12
9151.04 3286.65 -1837.56
8708.69 3342.38 -1223.42
8477.9 5817.43 -1233.12
10243.2 5817.43 -1837.56
7207.19 3761.78 -400.179
10349.9 2563.58 -1837.56
8124.85 4608.54 -1837.56
7065.7 5212.98 -1837.56
7418.75 4608.54 -1837.56
10949.3 1478.96 -1837.56
10949.3 1115.52 -1075.22
9750.45 3648.19 -1837.56
10949.3 2925.11 -1837.56
10949.3 4371.27 -1837.56
10949.3 2202.04 -1837.56
10949.3 3648.19 -1837.56
7418.75 5817.43 -1837.56
8830.95 5817.43 -1837.56
8124.85 5817.43 -1837.56
9537.06 5817.43 -1837.56
10949.3 5817.43 -1837.56</DataArray>
            </Points>
            <CellData>
                <DataArray type="UInt64" Name="partition" format="ascii">
2
2
2
2
2
2
2
2
2
2
2
2
2
2
2
2
2
2
2
2
2
2
2
2
2
2
2
2
2
2
2
2
2
2
2
2
2
2
2
2
2
2
2
2
2
2
2
2
2
2
2
2
2
2
2
2
2
2
2
2
2
2
2
2
2
2
2
2
2
2
2
2
2
2
2
2
2
2
2
2
2
2
2
2
2
2
2
2
2
2
2
2
2
2
2
2
2
2
2
2
2
2
2
2
2
2
2
2
2
2
2
2
2
2
2
2
2
2
2
2
2
2
2
2
2
2
2
2
2
2
2
2
2
2
2
2
2
2
2
2
2
2
2
2
2
2
2
2
2
2
2
2
2
2
2
2
2
2
2
2
2
2
2
2
2
2
2
2
2
2
2
2
2
2
2
2
2
2
2
2
2
2
2
2
2
2
2
2
2
2
2
2
2
2
2
2
2
2
2
2
2
2
2
2
2
2
2
2
2
2
2
2
2
2
2
2
2
2
2
2
2
2
2
2
2
2
2
2
2
2
2
2
2
2
2
2
2
2
2
2
2
2
2
2
2
2
2
2
2
2
2
2
2
2
2
2
2
2
2
2
2
2
2
2
2
2
2
2
2
2
2
2
2
2
2
2
2
2
2
2
2
2
2
2
2
2
2
2
2
2
2
2
2
2
2
2
2
2
2
2
2
2
2
2
2
2
2
2
2
2
2
2
2
2
2
2
2
2
2
2
2
2
2
2
2
2
2
2
2
2
2
2
2
2
2
2
2
2
2
2
2
2
2
2
2
2
2
2
2
2
2
2
2
2
2
2
2
2
2
2
2
2
2
2
2
2
2
2
2
2
2
2
2
2
2
2
2
2
2
2
2
2
2
2
2
2
2
2
2
2
2
2
2
2
2
2
2
2
2
2
2
2
2
2
2
2
2
2
2
2
2
2
2
2
2
2
2
2
2
2
2
2
2
2
2
2
2
2
2
2
2
2
2
2
2
2
2
2
2
2
2
2
2
2
2
2
2
2
2
2
2
2
2
2
2
2
2
2
2
2
2
2
2
2
2
2
2
2
2
2
2
2
2
2
2
2
2
2
2
2
2
2
2
2
2
2
2
2
2
2
2
2
2
2
2
2
2
2
2
2
2
2
2
2
2
2
2
2
2
2
2
2
2
2
2
2
2
2
2
2
2
2
2
2
2
2
2
2
2
2
2
2
2
2
2
2
2
2
2
2
2
2
2
2
2
2
2
2
2
2
2
2
2
2
2
2
2
2
2
2
2
2
2
2
2
2
2
2
2
2
2
2
2
2
2
2
2
2
2
2
2
2
2
2
2
2
2
2
2
2
2
2
2
2
2
2
2
2
2
2
2
2
2
2
2
2
2
2
2
2
2
2
2
2
2
2
2
2
2
2
2
2
2
2
2
2
2
2
2
2
2
2
2
2
2
2
2
2
2
2
2
2
2
2
2
2
2
2
2
2
2
2
2
2
2
2
2
2
2
2
2
2
2
2
2
2
2
2
2
2
2
2
2
2
2
2
2
2
2
2
2
2
2
2
2
2
2
2
2
2
2
2
2
2
2
2
2
2
2
2
2
2
2
2
2
2
2
2
2
2
2
2
2
2
2
2
2
2
2
2
2
2
2
2
2
2
2
2
2
2
2
2
2
2
2
2
2
2
2
2
2
2
2
2
2
2
2
2
2
2
2
2
2
2
2
2
2
2
2
2
2
2
2
2
2
2
2
2
2
2
2
2
2
2
2
2
2
2
2
2
2
2
2
2
2
2
2
2
2
2
2
2
2
2
2
2
2
2
2
2
2
2
2
2
2
2
2
2
2
2
2
2
2
2
2
2
2
2
2
2
2
2
2
2
2
2
2
2
2
2
2
2
2
2
2
2
2
2
2
2
2
2
2
2
2
2
2
2
2
2
2
2
2
2
2
2
2
2
2
2
2
2
2
2
2
2
2
2
2
2
2
2
2
2
2
2
2
2
2
2
2
2
2
2
2
2
2
2
2
2
2
2
2
2
2
2
2
2
2
2
2
2
2
2
2
2
2
2
2
2
2
2
2
2
2
2
2
2
2
2
2
2
2
2
2
2
2
2
2
2
2
2
2
2
2
2
2
2
2
2
2
2
2
2
2
2
2
2
2
2
2
2
2
2
2
2
2
2
2
2
2
2
2
2
2
2
2
2
2
2
2
2
2
2
2
2
2
2
2
2
2
2
2
2
2
2
2
2
2
2
2
2
2
2
2
2
2
2
2
2
2
2
2
2
2
2
2
2
2
2
2
2
2
2
2
2
2
2
2
2
2
2
2
2
2
2
2
2
2
2
2
2
2
2
2
2
2
2
2
2
2
2
2
2
2
2
2
2
2
2
2
2
2
2
2
2
2
2
2
2
2
2
2
2
2
2
2
2
2
2
2
2
2
2
2
2
2
2
2
2
2
2
2
2
2
2
2
2
2
2
2
2
2
2
2
2
2
2
2
2
2
2
2
2
2
2
2
2
2
2
2
2
2
2
2
2
2
2
2
2
2
2
2
2
2
2
2
2
2
2
2
2
2
2
2
2
2
2
2
2
2
2
2
2
2
2
2
2
2
2
2
2
2
2
2
2
2
2
2
2
2
2
2
2
2
2
2
2
2
2
2
2
2
2
2
2
2
2
2
2
2
2
2
2
2
2
2
2
2
2
2
2
2
2
2
2
2
2
2
2
2
2
2
2
2
2
2
2
2
2
2
2
2
2
2
2
2
2
2
2
2
2
2
2
2
2
2
2
2
2
2
2
2
2
2
2
2
2
2
2
2
2
2
2
2
2
2
2
2
2
2
2
2
2
2
2
2
2
2
2
2
2
2
2
2
2
2
2
2
2
2
2
2
2
2
2
2
2
2
2
2
2
2
2
2
2
2
2
2
2
2
2
2
2
2
2
2
2
2
2
2
2
2
2
2
2
2
2
2
2
2
2
2
2
2
2
2
2
2
2
2
2
2
2
2
2
2
2
2
2
2
2
2
2
2
2
2
2
2
2
2
2
2
2
2
2
2
2
2
2
2
2
2
2
2
2
2
2
2
2
2
2
2
2
2
2
2
2
2
2
2
2
2
2
2
2
2
2
2
2
2
2
2
2
2
2
2
2
2
2
2
2
2
2
2
2
2
2
2
2
2
2
2
2
2
2
2
2
2
2
2
2
2
2
2
2
2
2
2
2
2
2
2
2
2
2
2
2
2
2
2
2
2
2
2
2
2
2
2
2
2
2
2
2
2
2
2
2
2
2
2
2
2
2
2
2
2
2
2
2
2
2
2
2
2
2
2
2
2
2
2
2
2
2
2
2
2
2
2
2
2
2
2
2
2
2
2
2
2
2
2
2
2
2
2
2
2
2
2
2
2
2
2
2
2
2
2
2
2
2
2
2
2
2
2
2
2
2
2
2
2
2
2
2
2
2
2
2
2
2
2
2
2
2
2
2
2
2
2
2
2
2
2
2
2
2
2
2
2
2
2
2
2
2
2
2
2
2
2
2
2
2
2
2
2
2
2
2
2
2
2
2
2
2
2
2
2
2
2
2
2
2
2
2
2
2
2
2
2
2
2
2
2
2
2
2
2
2
2
2
2
2
2
2
2
2
2
2
2
2
2
2
2
2
2
2
2
2
2
2
2
2
2
2
2
2
2
2
2
2
2
2
2
2
2
2
2
2
2
2
2
2
2
2
2
2
2
2
2
2
2
2
2
2
2
2
2
2
2
2
2
2
2
2</DataArray>
                <DataArray type="UInt64" Name="region" format="ascii">
0
0
0
0
0
0
0
0
0
0
0
0
0
0
0
0
0
0
0
0
0
0
0
0
0
0
0
0
0
0
0
0
0
0
0
0
0
0
0
0
0
0
0
0
0
0
0
0
0
0
0
0
0
0
0
0
0
0
0
0
0
0
0
0
0
0
0
0
0
0
0
0
0
0
0
0
0
0
0
0
0
0
0
0
0
0
0
0
0
0
0
0
0
0
0
0
0
0
0
0
0
0
0
0
0
0
0
0
0
0
0
0
0
0
0
0
0
0
0
0
0
0
0
0
0
0
0
0
0
0
0
0
0
0
0
0
0
0
0
0
0
0
0
0
0
0
0
0
0
0
0
0
0
0
0
0
0
0
0
0
0
0
0
0
0
0
0
0
0
0
0
0
0
0
0
0
0
0
0
0
0
0
0
0
0
0
0
0
0
0
0
0
0
0
0
0
0
0
0
0
0
0
0
0
0
0
0
0
0
0
0
0
0
0
0
0
0
0
0
0
0
0
0
0
1
1
1
1
1
1
1
1
1
1
1
1
1
1
1
1
1
1
1
1
1
1
1
1
1
1
1
1
1
1
1
1
1
1
1
1
1
1
1
1
1
1
1
1
1
1
1
1
1
1
1
1
1
1
1
1
1
1
1
1
1
1
1
1
1
1
1
1
1
1
1
1
1
1
1
1
1
1
1
1
1
1
1
1
1
1
1
1
1
1
1
1
1
1
1
1
1
1
1
1
1
1
1
1
1
1
1
1
1
1
1
1
1
1
1
1
1
1
1
1
1
1
1
1
1
1
1
1
1
1
1
1
1
1
1
1
1
1
1
1
1
1
1
1
1
1
1
1
1
1
1
1
1
1
1
1
1
1
1
1
1
1
1
1
1
1
1
1
1
1
1
1
1
1
1
1
1
1
1
1
1
1
1
1
1
1
1
1
1
1
1
1
1
1
1
1
1
1
1
1
1
1
1
1
1
1
1
1
1
1
1
1
1
1
1
1
1
1
1
1
1
1
1
1
1
1
1
1
1
1
1
1
1
1
1
1
1
1
1
1
1
1
1
1
1
1
1
1
1
1
1
1
1
1
1
1
1
1
1
1
1
1
1
1
1
1
1
1
1
1
1
1
1
1
1
1
1
1
1
1
1
1
1
1
1
1
1
1
1
1
1
1
1
1
1
1
1
1
1
1
1
1
1
1
1
1
1
1
1
1
1
1
1
1
1
1
1
1
1
1
1
1
1
1
1
1
1
1
1
1
1
1
1
1
1
1
1
1
1
1
1
1
1
1
1
1
1
1
1
1
1
1
1
1
1
1
1
1
1
1
1
1
1
1
1
1
1
1
1
1
1
1
1
1
1
1
1
1
1
1
1
1
1
1
1
1
1
1
1
1
1
1
1
1
1
1
1
1
1
1
1
1
1
1
1
1
1
1
1
1
1
1
1
1
1
1
1
1
1
1
1
1
1
1
1
1
1
1
1
1
1
1
1
1
1
1
1
1
1
1
1
1
1
1
1
1
1
1
1
1
1
1
1
1
1
1
1
1
1
1
1
1
1
1
1
1
1
1
1
1
1
1
1
1
1
1
1
1
1
1
1
1
1
1
1
1
1
1
1
1
1
1
1
1
1
1
1
1
1
1
1
1
1
1
1
1
1
1
1
1
1
1
1
1
1
1
1
1
1
1
1
1
1
1
1
1
1
1
1
1
1
1
1
1
1
1
1
1
1
2
2
2
2
2
2
2
2
2
2
2
2
2
2
2
2
2
2
2
2
2
2
2
2
2
2
2
2
2
2
2
2
2
2
2
2
2
2
2
2
2
2
2
2
2
2
2
2
2
2
2
2
2
2
2
2
2
2
2
2
2
2
2
2
2
2
2
2
2
2
2
2
2
2
2
2
2
2
2
2
2
2
2
2
2
2
2
2
2
2
2
2
2
2
2
2
2
2
2
2
2
2
2
2
2
2
2
2
2
2
2
2
2
2
2
2
2
2
2
2
2
2
2
2
2
2
2
2
2
2
2
2
2
2
2
2
2
2
2
2
2
2
2
2
2
2
2
2
2
2
2
2
2
2
2
2
2
2
2
2
2
2
2
2
2
2
2
2
2
2
2
2
2
2
2
2
2
2
2
2
2
2
2
2
2
2
2
2
2
2
2
2
2
2
2
2
2
2
2
2
2
2
2
2
2
2
2
2
2
2
2
2
2
2
2
2
2
2
2
2
2
2
2
2
2
2
2
2
2
2
2
2
2
2
2
2
2
2
2
2
2
2
2
2
3
3
3
3
3
3
3
3
3
3
3
3
3
3
3
3
3
3
3
3
3
3
3
3
3
3
3
3
3
3
3
3
3
3
3
3
3
3
3
3
3
3
3
3
3
3
3
3
3
3
3
3
3
3
3
3
3
3
3
3
3
3
3
3
3
3
3
3
3
3
3
3
3
3
3
3
3
3
3
3
3
3
3
3
3
3
3
3
3
3
3
3
3
3
3
3
3
3
3
3
3
3
3
3
3
3
3
3
3
3
3
3
3
3
3
3
3
3
3
3
3
3
3
3
3
3
3
3
3
3
3
3
3
3
3
3
3
3
3
3
3
3
3
3
3
3
3
3
3
3
3
3
3
3
3
3
3
3
3
3
3
3
3
3
3
3
3
3
3
3
3
3
3
3
3
3
3
3
3
3
3
3
3
3
3
3
3
3
3
3
3
3
3
3
3
3
3
3
3
3
3
3
3
3
3
3
3
3
3
3
3
3
3
3
3
3
3
3
3
3
3
3
3
3
3
3
3
3
3
3
3
3
3
3
3
3
3
3
3
3
3
3
3
3
3
3
3
3
3
3
3
3
3
3
3
3
3
3
3
3
3
3
3
3
3
3
3
3
3
3
3
3
3
3
3
3
3
3
3
3
3
3
3
3
3
3
3
3
3
3
3
3
3
3
3
3
3
3
3
3
3
3
3
3
3
3
3
3
3
3
3
3
3
3
3
3
3
3
3
3
3
3
3
3
3
3
3
3
3
3
3
3
3
3
3
3
3
3
3
3
3
3
3
3
3
3
3
3
3
3
3
3
3
3
3
3
3
3
3
3
3
3
3
3
3
3
3
3
3
3
3
3
3
3
3
3
3
3
3
3
4
4
4
4
4
4
4
4
4
4
4
5
5
5
5
5
5
5
5
5
5
5
5
6
6
6
6
6
6
6
6
6
6
6
6
6
6
6
6
6
6
6
6
6
6
6
6
6
6
7
7
7
7
7
7
7
7
7
7
7
7
7
7
7
7
7
7
7
7
7
7
7
7
7
7
7
7
7
7
7
7
7
7
7
7
7
7
7
7
7
7
7
7
7
7
7
7
7
7
7
7
7
7
7
16
16
16
16
16
16
16
16
16
16
16
16
16
16
16
16
16
16
16
16
16
16
16
16
16
16
16
16
16
16
16
16
16
16
16
16
16
16
16
16
16
16
16
16
16
16
16
16
16
16
16
16
16
16
16
16
17
17
17
17
17
17
17
17
17
17
17
17
17
17
18
18
18
18
18
18
18
18
18
18
18
18
18
18
19
19
19
19
19
19
19
19
19
19
19
19
19
19
19
19
19
19
19
19
19
19
19
19
19
20
20
20
20
20
20
20
20
20
20
20
20
20
20
20
20
20
20
20
20
20
20
20
20
20
20
20
20
20
20
20
20
20
20
20
20
20
20
20
20
20
20
20
20
20
20
20
20
20
20
20
20
20
20
20
20
20
20
20
20
20
20
20
20</DataArray>
                <DataArray type="UInt64" Name="original_index" format="ascii">
2
140
146
166
192
204
205
208
212
213
216
218
226
230
237
238
244
253
264
309
338
378
379
380
383
384
389
395
398
404
405
408
409
410
412
427
429
459
469
518
564
647
1279
1319
1407
1424
1430
1457
1478
1497
1503
1510
1520
1549
1561
1655
1657
1658
1665
1668
1669
1670
1682
1683
1684
1685
1686
1687
1701
1702
1712
1713
1728
1733
1735
1745
1746
1747
1750
1751
1753
1754
1755
1756
1757
1758
1761
1762
1764
1765
1767
1768
1770
1775
1777
1780
1781
1782
1783
1784
1786
1787
1790
1791
1792
1797
1799
1801
1803
1804
1805
1806
1807
1808
1809
1810
1811
1812
1813
1814
1815
1816
1817
1818
1819
1820
1821
1822
1823
1824
1826
1827
1828
1829
1831
1832
1833
1836
1837
1838
1839
1840
1841
1842
1843
1844
1845
1846
1847
1848
1849
1850
1851
1852
1853
1854
1855
1856
1857
1858
1859
1860
1861
1862
1863
1864
1865
1866
1867
1868
1869
1870
1871
1872
1873
1874
1875
1876
1877
1878
1880
1881
1883
1884
1885
1886
1887
1888
1890
1891
1892
1893
1894
1895
1898
1899
1900
1901
1903
1904
1905
1906
1907
1908
1909
1910
1911
1912
1916
1918
1919
1920
1921
1922
1923
1925
1926
1927
1933
1934
1936
1937
1968
1969
2078
2107
2127
2129
2132
2135
2173
2174
2176
2180
2181
2192
2198
2202
2215
2225
2235
2256
2275
2281
2305
2312
2319
2320
2326
2330
2354
2360
2362
2363
2369
2372
2377
2378
2381
2384
2386
2403
2405
2409
2420
2427
2428
2431
2433
2443
2450
2452
2467
2476
2478
2480
2487
2489
2499
2502
2512
2527
2540
2562
2573
2605
2612
2633
2636
2670
2672
2680
2686
2695
2701
2703
2706
2708
2732
2733
2757
2762
2763
2768
2789
2791
2795
2806
2807
2831
2832
2833
2873
2906
2912
2915
2920
2929
2943
2947
2973
2974
2975
2994
3003
3004
3007
3012
3018
3033
3043
3075
3093
3100
3101
3103
3110
3112
3129
3133
3135
3138
3144
3151
3152
3176
3177
3183
3185
3191
3192
3198
3200
3208
3212
3213
3219
3238
3248
3251
3252
3257
3258
3264
3265
3268
3288
3292
3305
3308
3310
3329
3330
3335
3341
3351
3364
3368
3369
3377
3382
3395
3414
3418
3422
3426
3428
3430
3454
3463
3468
3472
3476
3477
3482
3487
3488
3502
3508
3512
3521
3525
3526
3532
3540
3542
3546
3565
3568
3570
3582
3583
3609
3620
3622
3627
3636
3637
3640
3646
3652
3656
3661
3664
3675
3708
3710
3724
3726
3733
3738
3747
3752
3761
3763
3784
3785
3792
3818
3820
3826
3827
3840
3846
3854
3861
3863
3869
3871
3872
3875
3883
3887
3888
3910
3939
3944
3968
3978
4011
4016
4036
4038
4056
4059
4063
4064
4072
4075
4077
4078
4092
4096
4105
4114
4137
4139
4146
4160
4178
4188
4209
4211
4214
4217
4219
4233
4250
4264
4278
4290
4307
4310
4317
4318
4326
4331
4341
4361
4369
4396
4406
4409
4411
4435
4447
4451
4452
4478
4482
4485
4486
4488
4517
4524
4528
4529
4541
4546
4550
4557
4562
4567
4575
4580
4585
4594
4622
4633
4643
4651
4685
4694
4695
4703
4705
4708
4715
4720
4722
4730
4745
4746
4759
4766
4768
4777
4780
4797
4810
4821
4851
4853
4876
4887
4889
4896
4900
4903
4907
4910
4912
4914
4915
4916
4926
4934
4938
4942
4944
4946
4947
4951
4952
4958
4962
4964
4973
4976
4978
4980
4989
4992
4993
5002
5008
5014
5016
5022
5024
5025
5036
5037
5050
5051
5052
5063
5076
5093
5096
5109
5111
5113
5115
5127
5144
5151
5158
5159
5167
5168
5169
5170
5177
5191
5195
5196
5201
5209
5221
5226
5235
5237
5244
5246
5250
5255
5260
5270
5285
5289
5310
5311
5316
5318
5327
5337
5345
5351
5367
5371
5390
5391
5393
5411
5413
5419
5424
5425
5427
5428
5430
5431
5437
5442
5452
5455
5468
5473
5479
5492
5496
5513
5514
5516
5519
5521
5522
5526
5530
5534
5543
5557
5573
5574
5583
5599
5609
5624
5627
5630
5635
5637
5639
5646
5657
5660
5671
5675
5679
5683
5691
5696
5699
5717
5718
5720
5724
5726
5731
5742
5771
5779
5792
5805
5810
5824
5826
5869
5881
5889
5900
5904
5907
5917
5936
5939
5940
5949
5964
5967
5989
5991
5998
5999
6000
6005
6011
6017
6020
6021
6028
6035
6043
6044
6051
6057
6071
6082
6087
6116
6136
6139
6140
6149
6150
6157
6159
6160
6166
6172
6187
6188
6198
6219
6226
6233
6235
6249
6263
6266
6267
6268
6408
6416
6419
6427
6432
6442
6447
6449
6451
6453
6468
6471
6493
6499
6503
6513
6576
6586
6600
6603
6604
6605
6608
6611
6612
6614
6615
6616
6618
6619
6623
6628
6638
6642
6644
6646
6650
6653
6662
6743
6749
6756
6777
6784
6786
6788
6792
6795
6798
6802
6806
6812
6817
6820
6822
6823
6825
6833
6836
6842
6843
6844
6845
6850
6856
6861
6869
6872
6873
6917
6920
6927
6928
6929
6937
7048
7158
7166
7543
7563
7704
7708
7832
7853
7855
7875
7881
7883
7919
7935
7958
7961
7966
7974
7978
7988
7989
7993
7995
7997
7999
8013
8020
8025
8043
8072
8074
8075
8090
8091
8092
8093
8099
8101
8103
8104
8105
8107
8108
8110
8113
8114
8115
8116
8117
8118
8119
8121
8124
8125
8127
8129
8132
8136
8139
8147
8148
8152
8154
8156
8159
8160
8161
8164
8165
8166
8167
8170
8171
8176
8180
8186
8189
8190
8192
8193
8195
8196
8197
8198
8201
8203
8204
8205
8206
8207
8208
8209
8211
8212
8214
8215
8216
8217
8218
8219
8220
8221
8222
8223
8224
8225
8226
8227
8228
8229
8230
8231
8232
8233
8234
8235
8236
8237
8238
8239
8240
8241
8242
8243
8244
8245
8246
8247
8248
8249
8250
8251
8252
8253
8254
8255
8256
8257
8258
8259
8260
8261
8262
8263
8264
8265
8266
8267
8268
8269
8270
8271
8272
8273
8275
8277
8278
8279
8284
8285
8286
8287
8292
8293
8320
8321
8323
8324
8493
8518
8539
8560
8593
8599
8643
8651
8654
8661
8676
8699
8702
8713
8748
8773
8781
8837
8846
8851
8854
8862
8866
8871
8902
8911
8917
8918
8964
8982
8991
8997
9006
9032
9060
9073
9074
9088
9094
9102
9164
9170
9181
9186
9199
9239
9269
9282
9283
9291
9294
9308
9325
9337
9338
9431
9439
9442
9460
9466
9474
9486
9492
9503
9516
9517
9520
9544
9551
9589
9607
9637
9666
9670
9674
9687
9722
9733
9743
9772
9845
9856
9860
9887
9888
9889
9891
9931
9941
9945
9956
9964
9990
9996
10015
10032
10047
10077
10084
10111
10119
10163
10168
10171
10183
10204
10205
10224
10228
10234
10236
10243
10251
10257
10277
10285
10287
10289
10310
10316
10323
10327
10331
10333
10366
10372
10389
10403
10407
10418
10438
10479
10503
10509
10534
10560
10565
10579
10596
10643
10664
10670
10672
10712
10713
10714
10719
10726
10733
10747
10770
10775
10813
10823
10826
10832
10894
10914
10930
10960
10971
10982
10999
11004
11009
11030
11040
11044
11051
11061
11068
11079
11129
11136
11144
11149
11159
11176
11190
11195
11251
11297
11342
11344
11349
11354
11372
11373
11398
11490
11532
11570
11580
11608
11611
11661
11687
11688
11716
11724
11727
11792
11809
11826
11834
11863
11865
11868
11876
11877
11878
11885
11888
11889
11903
11912
11939
11941
11953
11958
11959
11964
11972
11977
11979
11981
11999
12003
12013
12018
12028
12038
12041
12043
12064
12072
12079
12086
12087
12088
12093
12098
12103
12104
12109
12129
12150
12174
12181
12183
12186
12189
12192
12193
12194
12195
12209
12232
12242
12258
12279
12307
12333
12360
12383
12390
12392
12394
12397
12408
12434
12455
12459
12465
12466
12478
12482
12483
12508
12521
12583
12586
12588
12633
12647
12664
12670
12687
12702
12711
12720
12729
12736
12742
12743
12758
12801
12841
12843
12850
12889
12891
12897
12904
12937
12943
13040
13068
13071
13077
13124
13144
13145
13147
13158
13181
13193
13202
13206
13210
13233
13241
13242
13243
13244
13245
13246
13247
13248
13249
13250
13251
13252
13253
13254
13255
13271
13272
13273
13274
13275
13276
13277
13278
13279
13280
13290
13291
13292
2058
2059
2060
2061
2134
2135
2145
2147
2150
2152
2154
2155
2156
2157
2158
2159
2160
2161
2162
2163
2164
2165
2166
2167
2168
2169
2170
2171
2172
2173
2174
2210
2211
2212
2213
2214
2215
2216
2217
2218
2219
2220
2221
2222
2223
2224
2225
2226
2227
2228
2229
2230
2231
2232
2267
2296
2297
2298
2299
2300
2301
2303
2304
2305
2306
2307
2308
2309
2310
2311
2312
2313
2314
2320
2322
2324
2328
2331
2334
2339
2503
2504
2505
2506
2507
2508
2509
2510
2511
2512
2513
2514
2545
2547
2548
2549
2550
2621
2622
2623
2625
2626
2627
2628
2629
2630
2631
2632
2633
2634
2635
2636
2637
2638
2639
2640
2644
2764
2978
2979
2980
2981
2982
2983
2984
2985
2986
2987
2988
2989
2990
2991
2992
2994
2995
3699
3702
3703
3708
3709
3710
3711
3712
3716
3717
3718
3719
3720
3721
3722
3723
3724
3725
3726
3727
3728
3729
3730
3731
3740
3743
3744
3745
3746
3747
3748
3749
3750
3751
3752
3753
3754
3755
3756
3757
3758
3759
3760
3761
3762
3763
3764
3765
3766
3767
3768
3769
3770
3771
3772
3773
3774
3775
3776
3777
3778
3779
3780
3781
3782
3783
3796
3797
3798
3799
3812
3813
3814
3815
3816
3817
3818
3819
3820
3821
3822
3823
3824
3825
3828
3829
3830
3831
3832
3833
3834
3835
3836
3837
3838
3839
3840
3841
3842
3843
3844
3845
3849
3850
3851
3852
3853
3854
3855
3942
3966
3967
3968
3969
3970
3971
3972
3973
3974
3975
3976
3977
3978
3979
3980
3984
3985
3986
3987
3988
3989
3990
3991
4002
4003
4005
4018
4023
4024
4025
4026
4027
4028
4029
4030
4031
4032
4033
4034
4035
4036
4037
4038
4039
4040
4041
4042
4043
4044
4045
4046
4047
4048
4049
4050
4051
4052
4053
4054
4055
4056
4057
4058</DataArray>
            </CellData>
            <Cells>
                <DataArray type="UInt64" Name="connectivity" format="ascii">
0 1 2 3 
4 5 6 7 
8 9 10 11 
12 13 14 15 
16 17 18 19 
20 21 22 23 
5 6 7 24 
8 25 26 27 
16 17 19 28 
29 30 31 32 
33 34 32 35 
13 12 14 30 
36 37 38 39 
40 39 41 42 
43 17 44 45 
46 2 15 3 
17 47 44 45 
48 49 11 50 
44 47 51 45 
4 52 7 53 
54 55 56 31 
25 57 26 27 
58 25 21 59 
60 36 61 62 
5 63 64 65 
33 54 56 31 
1 0 66 3 
21 20 67 59 
33 68 69 35 
14 46 15 3 
2 1 15 3 
15 1 66 3 
6 4 7 53 
37 39 41 70 
8 58 9 71 
6 5 38 70 
41 40 72 70 
67 19 73 22 
43 44 51 45 
51 12 46 15 
4 74 75 76 
19 16 73 22 
20 77 78 23 
25 58 8 59 
57 79 25 26 
37 76 38 70 
72 40 64 65 
36 37 62 80 
16 17 28 61 
9 8 81 11 
37 36 61 39 
17 18 19 45 
18 17 43 45 
20 79 21 23 
64 63 82 65 
58 25 8 9 
72 40 83 64 
47 83 44 56 
36 74 76 80 
28 37 39 41 
6 4 75 76 
54 33 34 31 
52 84 53 75 
85 82 68 86 
84 87 88 75 
6 4 76 38 
85 64 82 86 
74 89 75 76 
90 83 64 86 
73 91 61 62 
37 28 61 62 
83 47 44 42 
47 17 41 45 
73 77 92 93 
73 77 22 92 
34 29 31 32 
36 37 61 62 
0 1 9 2 
21 18 67 22 
16 19 73 28 
8 25 59 26 
13 14 15 3 
94 51 46 15 
28 37 61 39 
91 60 61 62 
91 73 92 93 
68 90 33 69 
12 55 51 46 
40 72 70 65 
48 49 81 11 
18 67 19 95 
20 21 67 22 
76 6 38 70 
51 43 45 94 
17 28 39 41 
77 67 73 22 
67 18 19 22 
18 16 19 22 
73 16 91 22 
28 73 61 62 
20 22 77 23 
22 20 77 67 
16 73 91 61 
73 16 28 61 
55 44 51 46 
96 91 92 93 
17 28 61 39 
22 77 23 92 
91 73 22 92 
33 90 86 56 
39 40 41 70 
37 38 39 70 
36 37 76 38 
4 52 53 75 
74 36 76 38 
88 87 89 75 
52 87 84 75 
5 4 6 38 
87 74 89 75 
6 4 53 75 
4 74 76 38 
74 87 4 75 
38 40 39 70 
83 72 64 86 
4 87 52 75 
38 5 40 70 
67 21 59 95 
40 5 64 65 
6 5 70 65 
18 43 58 95 
2 94 46 15 
37 36 76 80 
74 89 76 80 
47 17 44 42 
33 90 54 34 
5 40 70 65 
85 90 68 69 
72 47 83 42 
40 72 83 42 
39 17 41 42 
17 47 41 42 
41 47 72 42 
40 41 72 42 
82 64 65 86 
43 18 45 95 
64 72 65 86 
55 12 56 31 
90 64 85 86 
90 83 86 56 
90 68 33 86 
64 63 85 82 
90 85 68 86 
55 12 29 14 
6 5 65 24 
18 19 45 95 
63 5 7 24 
5 63 65 24 
7 6 53 24 
63 82 65 24 
12 29 14 30 
33 90 34 69 
12 29 30 31 
55 12 14 46 
47 72 83 56 
83 72 86 56 
90 33 54 56 
83 90 54 56 
83 54 55 56 
44 83 55 56 
18 21 67 95 
44 47 56 51 
97 98 32 35 
55 44 56 51 
12 55 56 51 
33 34 31 32 
54 34 29 31 
34 33 69 35 
55 54 29 31 
12 55 29 31 
13 15 66 3 
34 97 32 35 
34 69 97 35 
10 11 99 27 
45 43 95 94 
2 1 94 15 
44 43 51 46 
58 8 59 71 
59 58 71 95 
9 1 71 2 
58 9 71 2 
79 20 21 26 
21 20 59 26 
25 79 21 26 
25 21 59 26 
25 8 9 10 
17 19 28 45 
17 28 41 45 
43 2 94 46 
51 43 94 46 
18 58 21 95 
21 58 59 95 
12 14 46 15 
1 71 2 94 
58 71 95 94 
43 58 95 94 
58 43 2 94 
71 58 2 94 
1 0 81 100 
1 0 9 81 
1 9 71 81 
0 1 66 100 
49 0 48 81 
9 0 49 81 
10 8 11 27 
9 8 71 81 
0 48 81 100 
10 9 49 11 
49 9 81 11 
49 10 11 101 
49 11 50 101 
11 10 99 101 
11 99 50 101 
25 8 10 27 
57 25 10 27 
102 103 104 105 
17 44 42 106 
107 108 109 110 
111 90 112 113 
42 44 114 106 
115 116 117 118 
119 120 121 122 
123 124 125 126 
18 125 102 127 
128 129 130 131 
132 133 134 135 
136 133 137 138 
133 139 140 138 
102 103 105 141 
123 142 124 126 
91 61 60 143 
144 145 146 147 
148 149 125 135 
150 128 131 151 
152 136 137 138 
153 154 155 107 
156 55 46 126 
157 158 154 153 
5 40 64 159 
143 152 137 138 
22 18 16 149 
63 160 5 64 
161 162 29 54 
163 161 156 126 
161 29 55 54 
43 148 125 126 
163 164 126 131 
63 165 7 5 
166 167 168 169 
170 133 135 137 
102 125 137 141 
171 172 173 174 
135 143 137 138 