<?xml version="1.0" encoding="UTF-8"?>
<VTKFile type="UnstructuredGrid" version="0.1" byte_order="LittleEndian">
    <UnstructuredGrid>
        <Piece NumberOfPoints="370" NumberOfCells="1595">
            <PointData>
                <DataArray type="UInt64" Name="original_index" format="ascii" NumberOfComponents="1">
817
543
761
816
544
818
545
589
491
762
694
84
429
430
869
868
588
867
758
488
487
91
117
436
90
697
113
696
432
866
587
757
433
698
434
760
490
489
542
814
540
695
83
110
428
89
88
115
699
492
693
486
620
941
652
619
114
700
435
701
764
116
763
621
583
906
111
584
813
864
586
911
625
910
112
431
86
85
759
493
819
912
624
595
815
541
582
87
863
907
812
539
862
581
537
756
865
538
585
109
653
905
2074
2075
2308
2366
1920
1978
1921
2198
1979
2147
2228
2381
2433
2076
2077
2241
2367
2331
1917
356
1916
1717
355
2395
1710
2211
2392
1919
1706
359
358
2113
2112
2224
2032
2031
2202
2284
2456
2288
2221
2324
1976
2403
1922
1703
2190
2393
1705
2277
2114
2115
2200
2181
1974
2027
1975
2028
2256
2314
2345
1977
1918
1708
2072
2030
2148
1711
1709
1915
354
1716
1707
2109
2391
357
2316
2426
2452
2193
2302
2453
2029
2073
2110
2078
2071
1704
2111
2025
2026
1973
2141
2108
1980
2033
1715
360
2116
361
362
2172
2070
1218
1176
1017
1079
1075
1014
1013
1074
1128
1015
1073
190
1012
1181
1223
194
1129
1076
189
1180
1222
1132
1016
1018
1080
1019
1077
1078
1252
1135
1178
1177
1133
1130
1134
193
1131
196
195
1182
1224
192
1183
197
1217
191
1179
1127
1221
2473
2512
2588
2674
1433
1490
2597
2687
2608
2614
2615
1752
1432
336
2542
2490
2692
2735
2746
337
338
1434
1754
2741
1435
2524
1753
2587
2468
2738
2806
1774
1772
1755
1773
2569
1586
1585
2632
2850
1430
1488
1487
2731
2596
2780
2578
2825
1738
335
2784
1735
1011
1756
1436
2727
1429
333
1750
1749
2704
2736
2474
2537
2652
1431
2865
2781
2817
1742
1489
334
1751
1775
1739
1542
1541
1776
1777
2641
332
2764
2565
1737
1545
1492
1493
1494
1546
1743
2744
1543
1587
2507
2697
2699
2758
339
1491
340
1540
2591
2813
2757
1741
2678
2516
1740
1544
2630
1736
1771
1770
2771
1437
1757</DataArray>
            </PointData>
            <Points>
                <DataArray type="Float64" Name="Points" format="ascii" NumberOfComponents="3">
-1419.14 -1777.67 1364.38
-1418.73 -1777.58 1564.25
-1063.52 -2379.28 1404.47
-710.73 -1777.77 1465.47
-2125.45 -1777.54 1453.13
-2125.89 -1777.61 1252.73
-2830.53 -1777.47 1332.11
-2478.95 -1175.83 1398.57
-1770.71 -2379.2 1499.69
-1771.16 -2379.24 1299.63
1422.82 -2981.3 1683.78
1065.25 -3582.59 1876.51
1423.45 -2981.22 1882.87
711.881 -2981.14 1818.36
-2479.45 -1175.92 1198.29
-1773.92 -1176.04 1317.82
-1773.47 -1175.92 1517.63
-1066.64 -1176.2 1427.48
1066.97 -2379.31 1652.5
356.173 -2379.29 1782.93
1067.57 -2379.2 1852.39
-3886.97 -3582.59 1144.15
-3183.57 -3582.59 1070.98
-3533.83 -2980.9 1201.26
-3182.93 -3582.59 1270.81
-708.61 -2981.01 1448.68
-356.013 -3582.59 1510.13
0.865455 -2981.13 1539.76
-708.239 -2980.96 1648.27
-357.854 -1176.28 1526.22
-1066.39 -1176.06 1627.65
1779.11 -2379.08 1703.58
-1416.38 -2980.95 1548.18
-1416.84 -2980.97 1348.48
-2123.42 -2980.92 1440.34
-354.491 -2379.36 1499.81
-1063.17 -2379.21 1604.4
-354.263 -2379.25 1699.71
-710.465 -1777.64 1665.28
710.138 -1777.5 1630.27
710.533 -1777.5 1830.57
711.297 -2981.3 1619.35
1778.37 -3582.59 1931.6
1777.79 -3582.59 1733.24
2136.22 -2981.05 1921.95
-2477.77 -3582.59 1391.04
-1771.59 -3582.59 1505.14
-1772.04 -3582.59 1305.07
-2123.89 -2980.94 1240.16
-2477.05 -2379.19 1386.81
2135.74 -2981.16 1721.25
1779.63 -2378.97 1903.67
2135.91 -573.343 1936.22
2493.61 27.8775 1742.01
2494.39 27.8649 1942.86
2851.99 -573.801 1931.95
-1064.57 -3582.59 1411.37
-2829.73 -2980.93 1123.91
-2829.16 -2980.91 1323.94
-3534.46 -2980.93 1001.17
-3182.59 -2379.21 1065.39
-2478.26 -3582.59 1190.79
-2477.57 -2379.23 1186.69
1420.3 -573.438 1910.67
1778.4 -1174.87 1917.64
2135.2 -573.381 1736.39
1064.45 -3582.59 1680.44
1065 -1175.46 1874.12
1422.09 -1777.15 1688.55
1064.65 -1175.47 1673.7
-357.526 -1176.21 1726.23
-1421.09 -574.541 1378.78
-1420.78 -574.372 1578.88
-713.6 -574.691 1487.03
353.249 -3582.59 1603.53
1.22543 -2981.01 1738.69
-355.269 -3582.59 1707.01
354.424 -3582.59 1796.51
355.847 -2379.36 1582.95
-3181.99 -2379.17 1265.46
-2831.12 -1777.54 1132.17
-2126.92 -574.328 1260.08
-713.229 -574.595 1687.04
-2346.07 -330.264 1420.01
-0.992423 -1777.76 1555.67
-0.684774 -1777.71 1755.64
2493.56 -1175.07 1933.3
-1064.1 -3582.59 1610.8
1777.95 -1175.07 1717.78
1420.04 -573.529 1710.64
2135.45 -1776.87 1722.67
1422.63 -1777.03 1888.67
2492.89 -1175.08 1731.92
3208.83 -1175.79 1915.26
2850.66 -1777.1 1926.75
2492.53 -2378.93 1726.4
352.627 -1176.04 1609.39
2135.88 -1776.69 1922.28
353.025 -1176.05 1809.44
2492.87 -3582.59 1748.4
1777.57 27.9837 1936.15
2851.23 -573.754 1729.7
357.716 -1164.81 3247.13
1063.82 -1164.81 3247.13
351.368 -1612.93 2442.61
390.681 -778.734 2555.13
710.768 -2978.15 3247.13
1063.82 -2373.7 3247.13
1416.87 -2978.15 3247.13
1398.81 -2583.37 2564
1769.92 -2373.7 3247.13
2476.03 44.0812 3247.13
2129.88 -169.426 2587.74
2506.63 482.733 2586.98
3182.13 -361.249 2667.74
1769.92 -1164.81 3247.13
2476.03 -1164.81 3247.13
2490.46 -1561.71 2593.35
2352.81 -854.633 2563.61
-1152.22 -2941.51 2234.37
-1407.54 -2978.15 3247.13
-1760.59 -3582.59 3247.13
-2113.64 -2978.15 3247.13
-2113.64 -3582.59 2642.68
-2466.7 -3582.59 3247.13
-2466.7 -2958.97 2623.51
-2931.49 -3582.59 1924.09
3561.74 -950.18 2572.64
3238.73 -1586.92 2502.44
4.66476 -2978.15 3247.13
-75.7166 -3582.59 2348.76
357.716 -3582.59 3247.13
-348.387 -3582.59 3247.13
1416.87 -560.364 3247.13
710.768 -560.364 3247.13
1416.87 -975.109 2578.63
2122.97 -1769.26 3247.13
1416.87 -1769.26 3247.13
1747.97 -1744.12 2569.13
-1881.59 -2840.76 2226.53
-2670.03 -2734.98 1975.92
2114.15 -2388.71 2565.19
-69.5613 -2199.15 2343.43
-1058.44 -1970.68 2552.04
-348.387 -2373.7 3247.13
-715.772 -2581.19 2660.51
2122.97 -2978.15 3247.13
2121.93 -3582.59 2541.5
-1848.86 -2019.93 2372.77
-427.241 -805.538 2584.45
642.548 -3582.59 2434.47
604.159 -2590.08 2509.92
2122.97 -560.364 3247.13
2829.08 -560.364 3247.13
1011.18 -1906.05 2539.57
-373.321 -1555.58 2489.69
-1760.59 -2373.7 3247.13
-1407.54 -1769.26 3247.13
-1054.49 -2373.7 3247.13
-701.438 -1769.26 3247.13
-1875.15 -345.627 2388.13
-1407.54 -1255.64 2440.53
-2113.64 -1033.09 2592.09
357.716 -2373.7 3247.13
-701.438 -2978.15 3247.13
-1506.72 -3582.59 2153.1
-1054.49 -1164.81 3247.13
710.768 -1769.26 3247.13
3182.13 44.0812 3247.13
-3641.49 -3582.59 1799.7
-2220.65 -3582.59 2042.11
-2819.75 -2978.15 3247.13
-3172.8 -3582.59 3247.13
-2819.75 -3582.59 2642.68
-790.608 -3582.59 2255.17
-1407.54 -560.364 3247.13
-1144.7 -99.9473 2386.62
-1054.49 -3582.59 3247.13
-3188.51 -1232.34 2364.15
-2576.3 -1588.78 1965.53
-2775.69 -896.938 1941.98
-2891.02 -2132.96 2291.54
-3172.8 -2859.57 2524.11
-3398.74 -2722.69 1856.97
4.66476 -1769.26 3247.13
-348.387 -1164.81 3247.13
-701.438 -560.364 3247.13
3182.13 -1164.81 3247.13
-1760.59 -1164.81 3247.13
1375.46 -3582.59 2504.02
4.66476 -560.364 3247.13
-2819.75 -1769.26 3247.13
-2113.64 -1769.26 3247.13
-2466.7 -2373.7 3247.13
-1694.66 32.8001 3247.13
-2294.07 -328.739 3247.13
2476.03 -2373.7 3247.13
2829.08 -1769.26 3247.13
-3525.85 -3582.59 2642.68
1063.82 -3582.59 3247.13
3535.18 -560.364 3247.13
1769.92 -3582.59 3247.13
2476.03 -3582.59 3247.13
2829.08 648.527 3247.13
-2466.7 -1164.81 3247.13
2135.21 -573.402 936.394
2492.89 -1175.1 931.916
-1416.86 -2980.97 548.473
-1771.18 -2379.24 499.631
1066.94 -2379.31 852.502
711.262 -2981.3 819.343
1422.79 -2981.3 883.784
1779.07 -2379.08 903.572
2135.46 -1776.89 922.671
0.835031 -2981.13 739.76
2492.53 -2378.96 926.398
1777.75 -3582.59 933.241
2135.7 -2981.16 921.253
-1066.67 -1176.2 627.481
-1421.12 -574.535 578.78
-1064.6 -3582.59 611.37
1422.05 -1777.15 888.551
355.815 -2379.36 782.948
2492.85 -3582.59 948.086
-357.882 -1176.27 726.22
-713.626 -574.685 687.028
-710.756 -1777.76 665.462
-708.636 -2981.01 648.675
-2123.91 -2980.94 440.159
-2477.59 -2379.23 386.686
-2829.75 -2980.93 323.911
-354.519 -2379.36 699.802
-1063.55 -2379.28 604.468
2493.61 27.8569 942.013
-2831.13 -1777.54 332.171
1064.62 -1175.47 873.694
1777.96 -1175.09 917.781
-1419.16 -1777.67 564.38
710.104 -1777.5 830.265
-2125.9 -1777.6 452.731
-356.042 -3582.59 710.128
-1.02266 -1777.76 755.663
-2478.28 -3582.59 390.792
-1772.06 -3582.59 505.072
-1773.94 -1176.03 517.818
-2126.94 -574.322 460.075
353.216 -3582.59 803.531
-2479.46 -1175.91 398.284
-3183.58 -3582.59 270.98
2851.23 -573.776 929.7
1064.41 -3582.59 880.432
352.595 -1176.04 809.382
2850.01 -1777.12 925.231
-4.4622 -574.59 781.628
816.286 -2581.73 -172.704
425.447 -1960.98 117.716
1733.31 -2021.06 26.9366
1074.19 -1492.54 -332.32
4.66476 -2978.15 -1837.56
-348.387 -2373.7 -1837.56
-348.387 -2906.9 -926.481
357.716 -2968.83 -1223.8
2065.03 -2635.18 271.438
2502.5 -1567.39 123.905
2784.45 -2541.7 -595.498
-701.438 -3582.59 -1233.12
-701.438 -2978.15 -1837.56
-348.387 -3582.59 -1837.56
1490.99 -2930.14 -89.7109
-2339.77 -1964.09 -419.266
1416.87 -2198.37 -1245.11
1416.87 -1348.59 -1254.07
1439.38 -2364.31 -539.841
357.716 -3582.59 -1837.56
1063.82 -3582.59 -1837.56
710.768 -2978.15 -1837.56
710.768 -3582.59 -1233.12
-269.086 -1565.12 27.558
1416.87 -2978.15 -1837.56
875.279 -3047.31 -746.918
4.66476 -3582.59 -1233.12
-252.577 -2779.05 -94.7436
-1268.68 -2592.68 -436.858
-1104.51 -2037.87 -20.1614
-774.76 -2131.54 -828.273
497.435 -3582.59 -399.518
1835.55 -3582.59 -287.458
1416.87 -3582.59 -1233.12
1174.59 -3582.59 -329.949
1769.92 -2779.03 -1034
-1054.49 -1164.81 -1837.56
-1760.59 -1164.81 -1837.56
-1352.81 -1395.89 -1164.72
-1039.35 -768.321 -1252.44
-2113.64 -2978.15 -1837.56
-1760.59 -2373.7 -1837.56
-2466.7 -2373.7 -1837.56
-2315.58 -2690.77 -985.539
1457.07 -965.879 314.876
2482.5 -769.849 360.838
-1043.88 -1482.46 -463.154
-1205.62 -904.892 -40.1659
773.502 -3582.59 243.745
-1054.49 -3582.59 -1837.56
-1073.59 -2767.88 -1168.26
2823.71 -3582.59 331.214
2849.65 -2980.98 920.626
2122.97 -3582.59 -1233.12
2122.97 -2978.15 -1837.56
2476.03 -2934.33 -1189.3
-2819.75 -2978.15 -1837.56
-2466.7 -3582.59 -1837.56
-2113.64 -3582.59 -1233.12
-2819.75 -3582.59 -1233.12
-1759.57 -1516.74 -175.069
-2202.88 -2680.94 -243.426
4.66476 -2174.59 -806.858
-109.996 -821.228 -288.686
-348.387 -1570.14 -1164.21
-1407.54 -2978.15 -1837.56
-1760.59 -3051.22 -1046.85
2162.31 -2094.75 -1007.41
3300.19 -2045.16 -260.467
-2029.05 -3582.59 -146.046
-1054.49 -2373.7 -1837.56
-1760.59 -3582.59 -1837.56
-1407.54 -3582.59 -1233.12
-194.066 -3582.59 -485.056
77.149 -3582.59 160.268
-701.438 -1769.26 -1837.56
-1407.54 -1769.26 -1837.56
-891.583 -3582.59 -583.372
-1585.92 -3582.59 -687.923
3148.84 -2812.72 133.408
-3172.8 -3582.59 -1837.56
2158.72 -2933.3 -391.235
710.768 -2174.59 -1160.05
1465.5 -3582.59 306.738
1416.87 -1769.26 -1837.56
1063.82 -2373.7 -1837.56
1769.92 -2373.7 -1837.56
2476.03 -2373.7 -1837.56
2122.97 -1769.26 -1837.56
-2730.16 -3582.59 -262.321
2930.56 -2115.31 -1187.1
4.66476 -1769.26 -1837.56
-348.387 -1164.81 -1837.56
-1054.49 -361.249 -626.161
-1919.2 -213.777 -357.53
-1507.64 -242.746 -1187.08
-1636.67 -891.922 -634.052
1769.92 -3582.59 -1837.56
357.716 -2373.7 -1837.56
2476.03 -3582.59 -1837.56
-2113.64 -1769.26 -1837.56
-2113.64 -1363.93 -1041.33
-1778.91 -1979.07 -1229.47
2859.94 -2162.58 316.583
-1328.92 -3582.59 -36.8055
2122.97 -988.941 -1221.85
2041.1 -1411.75 -630.912
-627.257 -3582.59 64.8041
710.768 -1769.26 -1837.56
710.768 -1363.93 -1245.76
2147.79 -3582.59 339.044
2478.65 -3582.59 -277.828
3116.03 -3582.59 -304.829
707.951 -1014.42 146.416
2829.08 -2978.15 -1837.56
2829.08 -3582.59 -1233.12</DataArray>
            </Points>
            <CellData>
                <DataArray type="UInt64" Name="partition" format="ascii">
8
8
8
8
8
8
8
8
8
8
8
8
8
8
8
8
8
8
8
8
8
8
8
8
8
8
8
8
8
8
8
8
8
8
8
8
8
8
8
8
8
8
8
8
8
8
8
8
8
8
8
8
8
8
8
8
8
8
8
8
8
8
8
8
8
8
8
8
8
8
8
8
8
8
8
8
8
8
8
8
8
8
8
8
8
8
8
8
8
8
8
8
8
8
8
8
8
8
8
8
8
8
8
8
8
8
8
8
8
8
8
8
8
8
8
8
8
8
8
8
8
8
8
8
8
8
8
8
8
8
8
8
8
8
8
8
8
8
8
8
8
8
8
8
8
8
8
8
8
8
8
8
8
8
8
8
8
8
8
8
8
8
8
8
8
8
8
8
8
8
8
8
8
8
8
8
8
8
8
8
8
8
8
8
8
8
8
8
8
8
8
8
8
8
8
8
8
8
8
8
8
8
8
8
8
8
8
8
8
8
8
8
8
8
8
8
8
8
8
8
8
8
8
8
8
8
8
8
8
8
8
8
8
8
8
8
8
8
8
8
8
8
8
8
8
8
8
8
8
8
8
8
8
8
8
8
8
8
8
8
8
8
8
8
8
8
8
8
8
8
8
8
8
8
8
8
8
8
8
8
8
8
8
8
8
8
8
8
8
8
8
8
8
8
8
8
8
8
8
8
8
8
8
8
8
8
8
8
8
8
8
8
8
8
8
8
8
8
8
8
8
8
8
8
8
8
8
8
8
8
8
8
8
8
8
8
8
8
8
8
8
8
8
8
8
8
8
8
8
8
8
8
8
8
8
8
8
8
8
8
8
8
8
8
8
8
8
8
8
8
8
8
8
8
8
8
8
8
8
8
8
8
8
8
8
8
8
8
8
8
8
8
8
8
8
8
8
8
8
8
8
8
8
8
8
8
8
8
8
8
8
8
8
8
8
8
8
8
8
8
8
8
8
8
8
8
8
8
8
8
8
8
8
8
8
8
8
8
8
8
8
8
8
8
8
8
8
8
8
8
8
8
8
8
8
8
8
8
8
8
8
8
8
8
8
8
8
8
8
8
8
8
8
8
8
8
8
8
8
8
8
8
8
8
8
8
8
8
8
8
8
8
8
8
8
8
8
8
8
8
8
8
8
8
8
8
8
8
8
8
8
8
8
8
8
8
8
8
8
8
8
8
8
8
8
8
8
8
8
8
8
8
8
8
8
8
8
8
8
8
8
8
8
8
8
8
8
8
8
8
8
8
8
8
8
8
8
8
8
8
8
8
8
8
8
8
8
8
8
8
8
8
8
8
8
8
8
8
8
8
8
8
8
8
8
8
8
8
8
8
8
8
8
8
8
8
8
8
8
8
8
8
8
8
8
8
8
8
8
8
8
8
8
8
8
8
8
8
8
8
8
8
8
8
8
8
8
8
8
8
8
8
8
8
8
8
8
8
8
8
8
8
8
8
8
8
8
8
8
8
8
8
8
8
8
8
8
8
8
8
8
8
8
8
8
8
8
8
8
8
8
8
8
8
8
8
8
8
8
8
8
8
8
8
8
8
8
8
8
8
8
8
8
8
8
8
8
8
8
8
8
8
8
8
8
8
8
8
8
8
8
8
8
8
8
8
8
8
8
8
8
8
8
8
8
8
8
8
8
8
8
8
8
8
8
8
8
8
8
8
8
8
8
8
8
8
8
8
8
8
8
8
8
8
8
8
8
8
8
8
8
8
8
8
8
8
8
8
8
8
8
8
8
8
8
8
8
8
8
8
8
8
8
8
8
8
8
8
8
8
8
8
8
8
8
8
8
8
8
8
8
8
8
8
8
8
8
8
8
8
8
8
8
8
8
8
8
8
8
8
8
8
8
8
8
8
8
8
8
8
8
8
8
8
8
8
8
8
8
8
8
8
8
8
8
8
8
8
8
8
8
8
8
8
8
8
8
8
8
8
8
8
8
8
8
8
8
8
8
8
8
8
8
8
8
8
8
8
8
8
8
8
8
8
8
8
8
8
8
8
8
8
8
8
8
8
8
8
8
8
8
8
8
8
8
8
8
8
8
8
8
8
8
8
8
8
8
8
8
8
8
8
8
8
8
8
8
8
8
8
8
8
8
8
8
8
8
8
8
8
8
8
8
8
8
8
8
8
8
8
8
8
8
8
8
8
8
8
8
8
8
8
8
8
8
8
8
8
8
8
8
8
8
8
8
8
8
8
8
8
8
8
8
8
8
8
8
8
8
8
8
8
8
8
8
8
8
8
8
8
8
8
8
8
8
8
8
8
8
8
8
8
8
8
8
8
8
8
8
8
8
8
8
8
8
8
8
8
8
8
8
8
8
8
8
8
8
8
8
8
8
8
8
8
8
8
8
8
8
8
8
8
8
8
8
8
8
8
8
8
8
8
8
8
8
8
8
8
8
8
8
8
8
8
8
8
8
8
8
8
8
8
8
8
8
8
8
8
8
8
8
8
8
8
8
8
8
8
8
8
8
8
8
8
8
8
8
8
8
8
8
8
8
8
8
8
8
8
8
8
8
8
8
8
8
8
8
8
8
8
8
8
8
8
8
8
8
8
8
8
8
8
8
8
8
8
8
8
8
8
8
8
8
8
8
8
8
8
8
8
8
8
8
8
8
8
8
8
8
8
8
8
8
8
8
8
8
8
8
8
8
8
8
8
8
8
8
8
8
8
8
8
8
8
8
8
8
8
8
8
8
8
8
8
8
8
8
8
8
8
8
8
8
8
8
8
8
8
8
8
8
8
8
8
8
8
8
8
8
8
8
8
8
8
8
8
8
8
8
8
8
8
8
8
8
8
8
8
8
8
8
8
8
8
8
8
8
8
8
8
8
8
8
8
8
8
8
8
8
8
8
8
8
8
8
8
8
8
8
8
8
8
8
8
8
8
8
8
8
8
8
8
8
8
8
8
8
8
8
8
8
8
8
8
8
8
8
8
8
8
8
8
8
8
8
8
8
8
8
8
8
8
8
8
8
8
8
8
8
8
8
8
8
8
8
8
8
8
8
8
8
8
8
8
8
8
8
8
8
8
8
8
8
8
8
8
8
8
8
8
8
8
8
8
8
8
8
8
8
8
8
8
8
8
8
8
8
8
8
8
8
8
8
8
8
8
8
8
8
8
8
8
8
8
8
8
8
8
8
8
8
8
8
8
8
8
8
8
8
8
8
8
8
8
8
8
8
8
8
8
8
8
8
8
8
8
8
8
8
8
8
8
8
8
8
8
8
8
8
8
8
8
8
8
8
8
8
8
8
8
8
8
8
8
8
8
8
8
8
8
8
8
8
8
8
8
8
8
8
8
8
8
8
8
8
8
8
8
8
8
8
8
8
8
8
8
8
8
8
8
8
8
8
8
8
8
8
8
8
8
8
8
8
8
8
8
8
8
8
8
8
8
8
8
8
8
8
8
8
8
8
8
8
8
8
8
8
8
8
8
8
8
8
8
8
8
8
8
8
8
8
8
8
8
8
8
8
8
8
8
8
8
8
8
8
8
8
8
8
8
8
8
8
8
8
8
8
8
8
8
8
8
8
8
8
8
8
8
8
8
8
8
8
8
8
8
8
8
8
8
8
8
8
8
8</DataArray>
                <DataArray type="UInt64" Name="region" format="ascii">
0
0
0
0
0
0
0
0
0
0
0
0
0
0
0
0
0
0
0
0
0
0
0
0
0
0
0
0
0
0
0
0
0
0
0
0
0
0
0
0
0
0
0
0
0
0
0
0
0
0
0
0
0
0
0
0
0
0
0
0
0
0
0
0
0
0
0
0
0
0
0
0
0
0
0
0
0
0
0
0
0
0
0
0
0
0
0
0
0
0
0
0
0
0
0
0
0
0
0
0
0
0
0
0
0
0
0
0
0
0
0
0
0
0
0
0
0
0
0
0
0
0
0
0
0
0
0
0
0
0
0
0
0
0
0
0
0
0
0
0
0
0
0
0
0
0
0
0
0
0
0
0
0
0
0
0
0
0
0
0
0
0
0
0
0
0
0
0
0
0
0
0
0
0
0
0
0
0
0
0
0
0
0
0
0
0
0
0
0
0
0
0
0
0
0
0
0
0
0
0
0
0
0
0
0
0
0
0
0
0
0
0
0
0
0
0
0
1
1
1
1
1
1
1
1
1
1
1
1
1
1
1
1
1
1
1
1
1
1
1
1
1
1
1
1
1
1
1
1
1
1
1
1
1
1
1
1
1
1
1
1
1
1
1
1
1
1
1
1
1
1
1
1
1
1
1
1
1
1
1
1
1
1
1
1
1
1
1
1
1
1
1
1
1
1
1
1
1
1
1
1
1
1
1
1
1
1
1
1
1
1
1
1
1
1
1
1
1
1
1
1
1
1
1
1
1
1
1
1
1
1
1
1
1
1
1
1
1
1
1
1
1
1
1
1
1
1
1
1
1
1
1
1
1
1
1
1
1
1
1
1
1
1
1
1
1
1
1
1
1
1
1
1
1
1
1
1
1
1
1
1
1
1
1
1
1
1
1
1
1
1
1
1
1
1
1
1
1
1
1
1
1
1
1
1
1
1
1
1
1
1
1
1
1
1
1
1
1
1
1
1
1
1
1
1
1
1
1
1
1
1
1
1
1
1
1
1
1
1
1
1
1
1
1
1
1
1
1
1
1
1
1
1
1
1
1
1
1
1
1
1
1
1
1
1
1
1
1
1
1
1
1
1
1
1
1
1
1
1
1
1
1
1
1
1
1
1
1
1
1
1
1
1
1
1
1
1
1
1
1
1
1
1
1
1
1
1
1
1
1
1
1
1
1
1
1
1
1
1
1
1
1
1
1
1
1
1
1
1
1
1
1
1
1
1
1
1
1
1
1
1
1
1
1
1
1
1
1
1
1
1
1
1
1
1
1
1
1
1
1
1
1
1
1
1
1
1
1
1
1
1
1
1
1
1
1
1
1
1
1
1
1
1
1
1
1
1
1
1
1
1
1
1
1
1
1
1
1
1
1
1
1
1
1
1
1
1
1
1
1
1
1
1
1
1
1
1
1
1
1
1
1
1
1
1
1
1
1
1
1
1
1
1
1
1
1
2
2
2
2
2
2
2
2
2
2
2
2
2
2
2
2
2
2
2
2
2
2
2
2
2
2
2
2
2
2
2
2
2
2
2
2
2
2
2
2
2
2
2
2
2
2
2
2
2
2
2
2
2
2
2
2
2
2
2
2
2
2
2
2
2
2
2
2
2
2
2
2
2
2
2
2
2
2
2
2
2
2
2
2
2
2
2
2
2
2
2
2
2
2
2
2
2
2
2
2
2
2
2
2
2
2
2
2
2
2
2
2
2
2
2
2
2
2
2
2
2
2
2
2
2
2
2
2
2
2
2
2
2
2
2
2
2
2
2
2
2
2
2
2
2
2
2
2
2
2
2
2
2
2
2
2
2
2
2
2
2
2
2
2
2
2
2
2
2
2
2
2
2
2
2
2
2
2
2
2
2
2
2
2
2
2
2
2
2
2
2
2
2
2
2
2
2
2
2
2
2
2
2
2
2
2
2
2
2
2
3
3
3
3
3
3
3
3
3
3
3
3
3
3
3
3
3
3
3
3
3
3
3
3
3
3
3
3
3
3
3
3
3
3
3
3
3
3
3
3
3
3
3
3
3
3
3
3
3
3
3
3
3
3
3
3
3
3
3
3
3
3
3
3
3
3
3
3
3
3
3
3
3
3
3
3
3
3
3
3
3
3
3
3
3
3
3
3
3
3
3
3
3
3
3
3
3
3
3
3
3
3
3
3
3
3
3
3
3
3
3
3
3
3
3
3
3
3
3
3
3
3
3
3
3
3
3
3
3
3
3
3
3
3
3
3
3
3
3
3
3
3
3
3
3
3
3
3
3
3
3
3
3
3
3
3
3
3
3
3
3
3
3
3
3
3
3
3
3
3
3
3
3
3
3
3
3
3
3
3
3
3
3
3
3
3
3
3
3
3
3
3
3
3
3
3
3
3
3
3
3
3
3
3
3
3
3
3
3
3
3
3
3
3
3
3
3
3
3
3
3
3
3
3
3
3
3
3
3
3
3
3
3
3
3
3
3
3
3
3
3
3
3
3
3
3
3
3
3
3
3
3
3
3
3
3
3
3
3
3
3
3
3
3
3
3
3
3
3
3
3
3
3
3
3
3
3
3
3
3
3
3
3
3
3
3
3
3
3
3
3
3
3
3
3
3
3
3
3
3
3
3
3
3
3
3
3
3
3
3
3
3
3
3
3
3
3
3
3
3
3
3
3
3
3
3
3
3
3
3
3
3
3
3
3
3
3
3
3
3
3
3
3
3
3
3
3
3
3
3
3
3
3
3
3
3
3
3
3
3
3
3
3
3
3
3
3
3
3
3
3
3
3
3
3
3
3
3
3
3
3
3
3
3
3
3
3
3
3
3
3
3
3
3
3
3
3
3
3
3
3
3
3
3
3
3
3
3
3
3
3
3
3
3
3
3
3
3
3
3
3
3
3
3
3
3
3
3
3
3
3
3
3
3
3
3
3
3
3
3
3
3
3
3
3
3
3
3
3
3
3
3
3
3
3
3
3
3
3
3
3
3
3
3
3
3
3
3
3
3
3
3
3
3
3
3
3
3
3
3
3
3
3
3
3
3
3
7
7
7
7
7
7
7
7
7
7
7
7
7
7
7
7
7
7
7
7
7
7
7
7
7
7
7
7
7
7
7
7
7
7
7
7
7
7
7
7
7
7
7
7
7
7
7
7
7
8
8
8
8
8
8
8
8
8
8
8
8
8
8
8
8
8
8
8
8
8
8
8
8
8
8
8
8
8
8
8
8
8
8
8
8
8
9
9
9
9
9
9
9
9
9
9
9
9
9
9
9
9
10
10
10
10
10
10
10
10
10
10
10
10
10
10
10
10
11
11
11
11
11
11
11
11
11
11
11
11
11
11
11
11
11
11
11
11
11
11
11
11
11
11
11
11
11
11
11
11
11
11
11
11
11
11
11
11
11
11
11
11
11
11
11
11
11
11
11
11
11
11
11
11
11
11
11
11
11
11
11
20
20
20
20
20
20
20
20
20
20
20
20
20
20
20
20
20
20
20
20
20
20
20
20
20
20
20
20
20
20
20
20
20
20
20
20
20
20
20
20
20
20
20
20
20
20
20
20
20
20
20
20
20
20
20
20
20
20
20
20
20
20
20
20
20
20
20
20
20
20
20
20
20
20
20
20
20
20
20
20
20</DataArray>
                <DataArray type="UInt64" Name="original_index" format="ascii">
1
5
11
24
40
59
72
83
86
93
94
138
139
148
149
152
153
154
157
158
159
165
199
260
270
271
279
284
285
295
302
310
313
314
322
324
328
411
499
536
541
569
594
601
713
730
789
811
820
839
840
843
845
870
876
884
890
892
894
916
918
924
931
935
936
941
942
945
947
948
949
950
955
956
957
958
959
960
961
966
967
968
969
970
973
974
975
977
981
982
992
996
998
1011
1013
1014
1019
1021
1022
1033
1034
1035
1036
1039
1043
1044
1045
1049
1051
1056
1058
1059
1060
1061
1063
1064
1069
1070
1072
1075
1076
1078
1080
1081
1086
1087
1088
1089
1090
1091
1092
1093
1095
1096
1097
1098
1102
1103
1104
1107
1108
1109
1110
1111
1113
1114
1116
1120
1121
1122
1123
1124
1125
1126
1127
1130
1131
1132
1133
1134
1136
1141
1143
1144
1145
1147
1148
1149
1150
1151
1152
1153
1154
1155
1156
1157
1158
1160
1161
1162
1163
1164
1165
1166
1167
1168
1169
1171
1174
1175
1176
1178
1179
1180
1181
1182
1185
1186
1188
1191
1192
1193
1195
1196
1197
1200
1208
1209
1238
1240
1257
1261
1265
1306
1337
1338
1346
2076
2101
2108
2110
2120
2122
2123
2126
2128
2141
2147
2156
2166
2184
2185
2194
2196
2204
2205
2208
2211
2220
2226
2228
2241
2251
2252
2260
2265
2289
2308
2335
2341
2367
2382
2383
2387
2412
2421
2434
2435
2447
2451
2490
2509
2511
2521
2556
2576
2581
2601
2607
2622
2630
2631
2645
2649
2653
2656
2662
2663
2674
2690
2697
2709
2710
2713
2724
2750
2760
2771
2781
2808
2813
2828
2830
2854
2867
2871
2888
2916
2924
2937
2940
2941
2946
2950
2961
2965
3013
3022
3027
3038
3042
3053
3065
3084
3114
3119
3124
3125
3140
3159
3161
3167
3178
3180
3225
3240
3261
3271
3290
3301
3303
3323
3328
3331
3349
3350
3356
3375
3379
3384
3392
3407
3408
3412
3443
3452
3457
3458
3471
3479
3494
3535
3553
3555
3558
3567
3571
3591
3608
3615
3628
3648
3688
3695
3706
3707
3714
3734
3736
3737
3740
3743
3748
3756
3773
3789
3793
3805
3834
3839
3844
3856
3884
3885
3897
3898
3899
3913
3915
3972
3991
4005
4013
4017
4021
4034
4046
4062
4081
4099
4109
4110
4119
4123
4124
4127
4128
4129
4130
4132
4133
4134
4136
4141
4142
4145
4149
4150
4152
4155
4157
4166
4171
4172
4173
4195
4197
4220
4229
4236
4237
4254
4265
4277
4295
4312
4323
4325
4349
4352
4358
4368
4372
4375
4379
4404
4407
4408
4415
4431
4440
4453
4481
4483
4494
4507
4512
4527
4530
4535
4542
4578
4626
4632
4634
4649
4662
4670
4672
4673
4687
4713
4719
4725
4750
4764
4771
4773
4784
4785
4790
4792
4795
4800
4813
4824
4831
4837
4841
4842
4857
4871
4878
4930
4966
4967
4996
4997
4998
5000
5021
5040
5043
5047
5065
5066
5069
5080
5082
5104
5107
5119
5132
5139
5143
5145
5147
5153
5155
5176
5178
5190
5206
5212
5223
5264
5268
5286
5291
5294
5307
5308
5314
5320
5349
5359
5389
5398
5444
5448
5453
5469
5474
5477
5478
5491
5499
5502
5525
5529
5544
5560
5565
5582
5588
5590
5592
5600
5604
5607
5614
5643
5665
5682
5700
5701
5704
5706
5707
5728
5735
5753
5761
5769
5774
5788
5790
5796
5801
5806
5808
5816
5825
5839
5859
5864
5868
5883
5888
5891
5896
5898
5899
5913
5923
5974
5975
5982
5988
5995
6016
6022
6061
6076
6085
6091
6095
6103
6124
6126
6129
6130
6132
6176
6204
6208
6210
6229
6250
6254
6260
6310
6314
6315
6316
6319
6320
6331
6332
6333
6334
6335
6336
6337
6338
6339
6401
6459
6469
6482
6484
6489
6498
6501
6506
6511
6520
6525
6528
6532
6539
6540
6552
6558
6560
6566
6573
6575
6579
6581
6585
6589
6591
6647
6659
6664
6669
6672
6687
6689
6705
6708
6709
6711
6716
6717
6718
6720
6730
6731
6732
6734
6735
6736
6738
6740
6742
6744
6759
6774
6841
6975
7000
7001
7003
7013
7029
7128
7134
7139
7237
7253
7290
7328
7329
7333
7334
7335
7336
7337
7343
7344
7345
7352
7356
7357
7359
7361
7362
7363
7364
7365
7366
7367
7368
7369
7375
7378
7379
7381
7382
7384
7385
7386
7387
7388
7389
7390
7393
7398
7466
7477
7478
7479
7480
7481
7482
7483
7484
7486
7487
7496
7499
7523
7526
7527
7528
7529
7530
7531
7534
7535
7537
7539
7540
7542
7544
7546
7547
7548
7549
7555
7556
7557
7560
7572
7574
7576
7579
7581
7582
7583
7584
7585
7587
7590
7591
7592
7593
7594
7596
7597
7599
7600
7601
7602
7603
7604
7605
7606
7607
7608
7609
7610
7611
7612
7613
7614
7615
7616
7617
7619
7620
7623
7624
7625
7628
7630
7631
7632
7633
7634
7635
7636
7637
7638
7639
7641
7642
7645
7646
7647
7648
7650
7651
7652
7653
7654
7655
7657
7658
7669
7670
7673
7674
7844
8465
8482
8496
8510
8521
8527
8531
8532
8533
8552
8563
8565
8579
8585
8586
8600
8605
8620
8628
8635
8637
8655
8665
8666
8674
8677
8688
8696
8736
8741
8742
8746
8752
8767
8770
8776
8792
8796
8806
8811
8820
8823
8835
8843
8848
8850
8861
8876
8898
8906
8908
8919
8922
8924
8950
8951
8972
8976
8980
8995
9000
9015
9018
9020
9025
9040
9052
9056
9064
9080
9081
9090
9109
9114
9122
9123
9134
9138
9139
9157
9159
9161
9180
9183
9195
9197
9200
9222
9223
9237
9238
9240
9241
9242
9245
9252
9280
9285
9289
9302
9311
9329
9332
9339
9362
9368
9369
9390
9394
9409
9417
9425
9436
9444
9446
9472
9482
9488
9500
9524
9525
9532
9533
9546
9548
9554
9557
9566
9574
9585
9597
9602
9604
9611
9643
9644
9662
9671
9679
9717
9720
9726
9727
9728
9749
9768
9771
9795
9804
9813
9849
9865
9877
9883
9886
9899
9919
9932
9935
9944
9946
9947
9950
9965
9966
9977
9979
9993
9994
10001
10014
10023
10051
10063
10069
10102
10116
10125
10131
10152
10159
10167
10184
10192
10193
10226
10241
10248
10252
10253
10254
10259
10272
10276
10283
10290
10298
10307
10325
10334
10345
10352
10357
10359
10371
10376
10379
10394
10428
10432
10437
10442
10447
10454
10457
10459
10461
10472
10478
10484
10486
10506
10511
10512
10527
10530
10551
10559
10568
10569
10580
10584
10588
10595
10628
10634
10635
10660
10667
10686
10707
10720
10722
10725
10739
10748
10784
10785
10786
10790
10792
10794
10796
10797
10800
10804
10819
10828
10840
10842
10850
10859
10860
10861
10867
10868
10871
10876
10883
10884
10886
10893
10896
10897
10900
10901
10902
10903
10905
10907
10915
10918
10931
10935
10941
10950
10962
10967
10969
10976
10979
11003
11020
11032
11046
11066
11069
11070
11096
11111
11119
11125
11132
11151
11179
11204
11266
11280
11302
11327
11339
11382
11384
11395
11397
11411
11414
11433
11438
11471
11473
11480
11483
11491
11505
11507
11514
11516
11520
11527
11535
11550
11558
11575
11596
11620
11635
11637
11642
11649
11653
11659
11676
11689
11700
11715
11723
11750
11758
11779
11794
11795
11824
11829
11838
11844
11852
11908
11914
11918
11960
11966
12001
12004
12009
12035
12040
12047
12061
12073
12074
12076
12081
12096
12100
12118
12120
12123
12159
12163
12175
12179
12222
12241
12249
12260
12263
12266
12282
12297
12312
12313
12314
12317
12361
12363
12366
12368
12399
12405
12407
12420
12425
12445
12454
12457
12464
12473
12497
12500
12512
12567
12587
12593
12599
12601
12613
12624
12625
12657
12659
12661
12662
12665
12666
12674
12677
12696
12712
12718
12721
12725
12730
12731
12738
12757
12777
12778
12788
12798
12839
12847
12849
12868
12883
12886
12910
12924
12932
12950
12969
12970
12987
12998
13022
13052
13064
13069
13078
13080
13081
13101
13106
13108
13122
13130
13131
13185
13195
13197
13199
13201
13221
13237
13238
13239
13240
13337
13339
13380
13381
13468
13469
13470
13471
13472
13473
2427
2434
2435
2436
2437
2438
2439
2440
2441
2442
2443
2444
2445
2676
2677
2678
2679
2720
2721
2722
2723
2724
2725
2726
2727
2728
2729
2730
2731
2732
2733
2734
2735
2736
2737
2738
2739
2740
2741
2750
2751
2752
2753
2754
2755
2756
2758
2760
2761
3137
3138
3139
3140
3141
3142
3143
3144
3145
3146
3147
3148
3149
3150
3151
3153
3154
3171
3172
3174
3175
3176
3177
3178
3180
3181
3182
3183
3184
3185
3186
3187
3188
3189
3191
3192
3195
3241
3242
3243
3244
3245
3246
3247
3248
3249
3250
3251
3252
3253
3254
3255
3256
3276
3277
3278
3279
3280
3281
3282
3283
3284
3285
3286
3287
3288
3289
3290
3291
3350
3352
3355
3359
3365
3366
3368
3369
3370
3371
3372
3373
3374
3375
3376
3377
3378
3379
3381
3382
3384
3387
3388
3391
3395
3396
3397
3398
3400
3402
3403
3406
3407
3408
3410
3412
3428
3429
3430
3431
3432
3433
3434
3435
3436
3437
3453
3454
3455
3456
3457
3458
3459
3460
3461
3462
3463
3464
3465
3466
3467
3468
3469
4235
4237
4238
4239
4240
4297
4298
4299
4300
4301
4302
4303
4304
4305
4306
4307
4308
4309
4310
4311
4312
4313
4314
4315
4316
4317
4318
4319
4320
4335
4336
4337
4338
4339
4340
4341
4342
4347
4351
4352
4353
4354
4355
4356
4395
4397
4398
4399
4400
4401
4402
4416
4476
4479
4480
4481
4482
4483
4484
4485
4486
4487
4488
4489
4490
4491
4492
4493
4494
4495
4496
4497
4498
4499
4500
4501
4502
4503
4505
4506
4507</DataArray>
            </CellData>
            <Cells>
                <DataArray type="UInt64" Name="connectivity" format="ascii">
0 1 2 3 
4 5 6 7 
4 0 8 9 
10 11 12 13 
7 5 14 15 
16 1 0 17 
13 18 19 20 
21 22 23 24 
25 26 27 28 
29 17 3 30 
31 18 10 20 
32 8 33 34 
35 36 37 38 
18 39 19 40 
18 41 13 19 
8 33 9 2 
42 43 12 44 
1 8 2 36 
45 34 46 47 
34 33 47 48 
49 8 34 9 
50 12 44 51 
52 53 54 55 
1 16 0 4 
32 33 25 56 
16 4 7 15 
33 32 34 46 
32 33 2 25 
4 8 49 9 
4 5 7 15 
57 58 23 24 
0 1 4 8 
59 57 60 23 
45 34 47 48 
61 45 47 48 
59 21 22 23 
4 0 5 15 
5 6 7 14 
49 62 5 9 
57 58 61 48 
62 58 57 48 
8 33 34 9 
33 32 46 56 
63 52 64 65 
8 32 33 2 
43 50 12 44 
17 1 3 30 
34 33 48 9 
42 43 11 12 
43 10 66 11 
50 31 12 51 
12 10 13 20 
67 68 40 69 
1 0 17 3 
0 8 9 2 
29 38 70 30 
71 72 17 73 
73 17 29 30 
74 75 76 77 
75 41 27 78 
33 46 47 56 
16 0 4 15 
45 58 61 24 
34 33 46 47 
27 75 37 28 
59 22 57 23 
0 1 8 2 
4 49 5 9 
49 34 48 9 
22 57 23 24 
57 22 61 24 
58 57 61 24 
58 62 49 48 
58 49 34 48 
58 45 61 48 
45 58 34 48 
57 60 23 79 
58 57 23 79 
62 58 49 79 
62 49 48 9 
58 62 57 79 
57 62 60 79 
0 4 5 9 
62 80 60 79 
49 4 5 6 
62 80 79 6 
49 62 79 6 
10 18 13 20 
62 49 5 6 
80 62 5 6 
16 71 15 81 
7 16 15 81 
5 80 6 14 
72 73 82 30 
3 1 38 30 
14 7 15 81 
83 16 7 81 
16 72 71 81 
72 16 83 81 
16 1 17 30 
37 84 38 85 
16 0 15 17 
71 16 15 17 
72 16 71 17 
84 29 38 70 
25 35 36 28 
36 35 37 28 
35 25 27 28 
64 52 86 65 
26 25 87 28 
8 32 2 36 
2 32 25 36 
29 3 84 38 
3 1 36 38 
75 78 37 19 
63 65 88 89 
73 29 82 30 
32 25 36 28 
90 68 91 88 
78 35 37 84 
86 92 93 94 
41 75 77 13 
35 27 37 28 
25 32 87 28 
31 12 51 20 
31 95 90 51 
2 25 35 36 
2 35 3 36 
1 2 3 36 
68 67 40 91 
27 75 78 37 
35 27 78 37 
85 84 70 96 
41 74 66 77 
84 38 85 70 
95 50 44 51 
92 64 86 65 
84 29 70 96 
91 67 64 88 
35 3 36 38 
35 37 84 38 
3 35 84 38 
32 46 56 87 
41 75 27 74 
25 32 56 87 
26 25 56 87 
31 10 12 20 
29 3 38 30 
27 26 74 76 
75 27 74 76 
87 26 28 76 
27 75 28 76 
26 27 28 76 
82 29 70 30 
18 41 10 13 
43 10 11 12 
41 75 13 19 
31 10 50 12 
75 41 78 19 
41 18 78 19 
90 91 64 88 
78 18 39 19 
19 18 40 20 
10 41 66 13 
10 43 50 12 
41 75 74 77 
10 66 11 13 
92 90 97 64 
68 67 91 88 
98 85 70 96 
43 42 99 44 
50 43 99 44 
18 68 40 20 
95 31 50 51 
66 41 77 13 
11 66 77 13 
18 68 39 40 
18 31 68 20 
39 84 85 96 
78 37 19 85 
37 78 84 85 
39 19 40 85 
72 17 73 30 
98 39 40 85 
84 78 39 85 
39 78 19 85 
97 90 91 64 
68 40 20 91 
31 68 20 91 
64 63 65 88 
90 31 51 91 
90 51 97 91 
68 31 90 91 
51 31 20 91 
67 63 64 88 
68 39 40 69 
69 67 88 89 
67 63 88 89 
98 39 85 96 
92 90 64 88 
97 92 64 86 
67 68 69 88 
98 67 40 69 
39 98 40 69 
92 64 65 88 
72 16 17 30 
63 52 65 100 
39 98 69 96 
52 86 65 55 
53 65 101 55 
53 52 54 100 
65 52 53 100 
52 65 53 55 
86 92 55 93 
86 92 65 55 
65 92 101 55 
97 92 86 94 
102 103 104 105 
106 107 108 109 
108 107 110 109 
111 112 113 114 
115 116 117 118 
87 28 32 119 
120 121 122 123 
124 122 123 125 
24 45 58 126 
93 127 118 128 
129 130 131 132 
133 103 134 135 
54 52 55 112 
136 110 137 138 
8 34 139 140 
51 97 138 141 
38 37 142 143 
129 144 142 145 
103 135 104 105 
146 147 109 141 
49 8 148 140 
97 86 64 117 
136 110 138 141 
82 30 70 149 
13 75 150 151 
146 147 108 109 
152 111 153 112 
36 1 148 143 
91 67 40 154 
36 1 8 148 
85 155 142 104 
156 157 158 143 